 Gaussian 16, Revision A.03,
 Gaussian 16:  ES64L-G16RevA.03 25-Dec-2016

 ----------------------------------------------------------------------
 #Opt Freq PBEPBE EmpiricalDispersion=GD3BJ 6-31+G(D) pop=(CM5, ESP, NB
 OREAD)
 ----------------------------------------------------------------------

 -------
 propane
 -------
 Symbolic Z-matrix:
 Charge =  0 Multiplicity = 1

 SCF Done:  E(RPBE-PBE) =  -118.964085616     A.U. after   11 cycles
 SCF Done:  E(RPBE-PBE) =  -118.965876114     A.U. after    9 cycles
 SCF Done:  E(RPBE-PBE) =  -118.965910921     A.U. after    8 cycles
 SCF Done:  E(RPBE-PBE) =  -118.965911999     A.U. after    7 cycles
 Optimization completed.
    -- Stationary point found.

 ESP charges:
               1
     1  C   -0.293270
     2  C    0.310002
     3  H    0.055585
     4  H    0.066623
     5  H    0.066623
     6  C   -0.307385
     7  H   -0.048910
     8  H   -0.048908
     9  H    0.059824
    10  H    0.069908
    11  H    0.069908
 Sum of ESP charges =  -0.00000

 Normal termination of Gaussian 16 at Thu Nov  4 16:12:03 2021.

 ----------------------------------------------------------------------
 #N Geom=AllCheck Guess=TCheck SCRF=Check GenChk RPBEPBE/6-31+G(d) Freq
 ----------------------------------------------------------------------

 Structure from the checkpoint file:  "propane_hessian.chk"
 -------
 propane
 -------
 Charge =  0 Multiplicity = 1

                         Standard orientation:
 ---------------------------------------------------------------------
 Center     Atomic      Atomic             Coordinates (Angstroms)
 Number     Number       Type             X           Y           Z
 ---------------------------------------------------------------------
      1          6           0       -1.277008   -0.260352    0.000062
      2          6           0        0.000008    0.588804    0.000062
      3          1           0       -2.185320    0.367846    0.000196
      4          1           0       -1.320048   -0.913299   -0.891067
      5          1           0       -1.319919   -0.913481    0.891063
      6          6           0        1.276995   -0.260352   -0.000119
      7          1           0       -0.000061    1.254738   -0.884251
      8          1           0        0.000059    1.254539    0.884523
      9          1           0        2.185330    0.367825   -0.000173
     10          1           0        1.320084   -0.913437    0.890907
     11          1           0        1.319906   -0.913330   -0.891231
 ---------------------------------------------------------------------

 SCF Done:  E(RPBE-PBE) =  -118.965911999     A.U. after    1 cycles

 The electronic state is 1-A.
 Alpha  occ. eigenvalues --   -9.89872  -9.88952  -9.88952  -0.70492  -0.61111
 Alpha  occ. eigenvalues --   -0.52184  -0.40508  -0.38671  -0.35074  -0.33312
 Alpha  occ. eigenvalues --   -0.29500  -0.29344  -0.28327
 Alpha virt. eigenvalues --    0.00260   0.02046   0.02446   0.03292   0.05805
 Alpha virt. eigenvalues --    0.06723   0.07393   0.07465   0.08364   0.10275
 Alpha virt. eigenvalues --    0.11051   0.13908   0.16518   0.17173   0.17238

 Mulliken charges:
               1
     1  C   -0.687969
     2  C   -0.337385
     3  H    0.213668
     4  H    0.214861
     5  H    0.214862
     6  C   -0.687979
     7  H    0.213275
     8  H    0.213276
     9  H    0.213668
    10  H    0.214863
    11  H    0.214861
 Sum of Mulliken charges =   0.00000

 Dipole moment (field-independent basis, Debye):
    X=              0.0000    Y=              0.0904    Z=              0.0000  Tot=              0.0904
 Quadrupole moment (field-independent basis, Debye-Ang):
   XX=            -22.6285   YY=            -22.2617   ZZ=            -21.7570
   XY=             -0.0001   XZ=              0.0000   YZ=             -0.0001

  Exact polarizability:  41.841   0.000  37.790  -0.000   0.000  35.465
 Approx polarizability:  55.129   0.000  56.166  -0.000   0.000  55.204

 Summary of Natural Population Analysis:

                                       Natural Population
                Natural  -----------------------------------------------
    Atom  No    Charge         Core      Valence    Rydberg      Total
 -----------------------------------------------------------------------
      C    1   -0.72269      1.99953     4.71633    0.00682     6.72269
      C    2   -0.51040      1.99946     4.50220    0.00875     6.51040
      H    3    0.24918      0.00000     0.75047    0.00035     0.75082
      H    4    0.24184      0.00000     0.75756    0.00060     0.75816
      H    5    0.24184      0.00000     0.75756    0.00060     0.75816
      C    6   -0.72269      1.99953     4.71633    0.00682     6.72269
      H    7    0.24503      0.00000     0.75392    0.00105     0.75497
      H    8    0.24503      0.00000     0.75392    0.00105     0.75497
      H    9    0.24918      0.00000     0.75047    0.00035     0.75082
      H   10    0.24184      0.00000     0.75756    0.00060     0.75816
      H   11    0.24184      0.00000     0.75756    0.00060     0.75816
 =======================================================================
   * Total *    0.00000      5.99853    19.97387    0.02761    26.00000

                      1                      2                      3
                      A                      A                      A
 Frequencies --    219.1055               270.6769               359.7312
 Red. masses --      1.0281                 1.1360                 2.0506
 Frc consts  --      0.0291                 0.0490                 0.1563
 IR Inten    --      0.0000                 0.0002                 0.0596

                      4                      5                      6
                      A                      A                      A
 Frequencies --    735.0530               868.4879               889.3691
 Red. masses --      1.0796                 2.5031                 1.1027
 Frc consts  --      0.3437                 1.1124                 0.5139
 IR Inten    --      4.0139                 1.1114                 0.0000

                      7                      8                      9
                      A                      A                      A
 Frequencies --    908.2219              1054.9123              1148.7903
 Red. masses --      1.1910                 2.4066                 1.8256
 Frc consts  --      0.5788                 1.5779                 1.4195
 IR Inten    --      2.6097                 0.8625                 1.1784

                     10                     11                     12
                      A                      A                      A
 Frequencies --   1181.4454              1283.8766              1329.5091
 Red. masses --      1.6746                 1.1261                 1.4216
 Frc consts  --      1.3772                 1.0937                 1.4805
 IR Inten    --      0.1880                 0.0000                 2.8894

                     13                     14                     15
                      A                      A                      A
 Frequencies --   1374.6181              1391.5559              1464.3065
 Red. masses --      1.2907                 1.2355                 1.0370
 Frc consts  --      1.4369                 1.4096                 1.3100
 IR Inten    --      7.4986                 4.1202                 0.0000

                     16                     17                     18
                      A                      A                      A
 Frequencies --   1464.8507              1471.5084              1483.0162
 Red. masses --      1.0494                 1.0512                 1.0403
 Frc consts  --      1.3267                 1.3411                 1.3480
 IR Inten    --      0.0106                 3.6772                19.3730

                     19                     20                     21
                      A                      A                      A
 Frequencies --   1486.6721              2965.3693              2968.3798
 Red. masses --      1.0744                 1.0601                 1.0352
 Frc consts  --      1.3991                 5.4922                 5.3741
 IR Inten    --      7.8388                29.5326                44.6249

                     22                     23                     24
                      A                      A                      A
 Frequencies --   2971.5846              2993.4226              3035.2921
 Red. masses --      1.0357                 1.1009                 1.1017
 Frc consts  --      5.3883                 5.8123                 5.9800
 IR Inten    --     28.1865                 5.9018                 0.0000

                     25                     26                     27
                      A                      A                      A
 Frequencies --   3044.3701              3045.5006              3047.3808
 Red. masses --      1.1024                 1.1016                 1.0999
 Frc consts  --      6.0199                 6.0199                 6.0182
 IR Inten    --     96.5856                29.4874                51.4863

 - Thermochemistry -
 -------------------
 Temperature   298.150 Kelvin.  Pressure   1.00000 Atm.
 Atom     1 has atomic number  6 and mass  12.00000

 Molecular mass:    44.06260 amu.
 Principal axes and moments of inertia in atomic units:
                           1         2         3
     Eigenvalues --    62.02776 216.28167 244.18881
           X            1.00000  -0.00000   0.00007
           Y            0.00000   1.00000  -0.00011
           Z           -0.00007   0.00011   1.00000
 This molecule is an asymmetric top.
 Rotational symmetry number  1.
 Rotational temperatures (Kelvin)      1.39637     0.40047     0.35470
 Rotational constants (GHZ):          29.09570     8.34440     7.39076
 Zero-point vibrational energy     265912.0 (Joules/Mol)
                                   63.55448 (Kcal/Mol)
 Warning -- explicit consideration of   3 degrees of freedom as
           vibrations may cause significant error
 Vibrational temperatures:    315.24   389.44   517.57  1057.58  1249.56
          (Kelvin)           1279.60  1306.73  1517.78  1652.85  1699.84
                             1847.21  1912.87  1977.77  2002.14  2106.81
                             2107.59  2117.17  2133.73  2138.99  4266.50
                             4270.84  4275.45  4306.87  4367.11  4380.17
                             4381.80  4384.50

 Zero-point correction=                           0.101281 (Hartree/Particle)
 Thermal correction to Energy=                    0.105856
 Thermal correction to Enthalpy=                  0.106800
 Thermal correction to Gibbs Free Energy=         0.075583
 Sum of electronic and zero-point Energies=           -118.864631
 Sum of electronic and thermal Energies=              -118.860056
 Sum of electronic and thermal Enthalpies=            -118.859112
 Sum of electronic and thermal Free Energies=         -118.890329

                     E (Thermal)             CV                S
                      KCal/Mol        Cal/Mol-Kelvin    Cal/Mol-Kelvin
 Total                   66.425             15.073             65.700
 Electronic               0.000              0.000              0.000
 Translational            0.889              2.981             37.275
 Rotational               0.889              2.981             22.709
 Vibrational             64.648              9.112              5.716
 Vibration     1          0.647              1.812              1.966
 Vibration     2          0.674              1.727              1.592
 Vibration     3          0.734              1.555              1.123

 Optimization completed.
    -- Stationary point found.
 Normal termination of Gaussian 16 at Thu Nov  4 16:12:17 2021.
