 Q-Chem 5.4, Q-Chem, Inc., Pleasanton, CA (2021)
 Q-Chem 5.4.0 for Intel X86 EM64T Linux

User input:
--------------------------------------------------------------
$comment
  Q-Force generated input for: CC_H8C3_d91b46644317dee9c2b868166c66a18c~1
$end

$molecule
  0 1
  C     1.277011    -0.260348     0.000002
  C    -0.000007     0.588797     0.000001
  H     2.185361     0.367804    -0.000000
  H     1.319958    -0.913388     0.891074
  H     1.319955    -0.913376    -0.891081
  C    -1.276998    -0.260350    -0.000000
  H    -0.000003     1.254670     0.884376
  H     0.000004     1.254656    -0.884384
  H    -2.185369     0.367787     0.000068
  H    -1.320001    -0.913323    -0.891118
  H    -1.319940    -0.913423     0.891048
$end

$rem
  method = PBE
  basis = 6-31+G(D)
  dft_d = d3_bj
  jobtype = pes_scan
  cm5 = true
  resp_charges = true
  mem_total = 1500
  geom_opt_max_cycles = 100
  max_scf_cycles = 100
  xc_grid = 3
$end

$scan
  tors 3 1 2 6 180.000 -180.000 -15.00
$end

--------------------------------------------------------------

   11    -118.9649494009      4.77e-09  Convergence criterion met
 Total energy in the final basis set =     -118.9649494009
 Final energy is   -118.964949400893
 **  OPTIMIZATION CONVERGED  **
   11    -118.9649493994      4.77e-09  Convergence criterion met
 Total energy in the final basis set =     -118.9649493994
   12    -118.9618762258      5.87e-09  Convergence criterion met
 Total energy in the final basis set =     -118.9618762258
   12    -118.9629028398      5.63e-09  Convergence criterion met
 Total energy in the final basis set =     -118.9629028398
   12    -118.9639132525      3.66e-09  Convergence criterion met
 Total energy in the final basis set =     -118.9639132525
   12    -118.9641997829      1.99e-09  Convergence criterion met
 Total energy in the final basis set =     -118.9641997829
   12    -118.9642895036      1.47e-09  Convergence criterion met
 Total energy in the final basis set =     -118.9642895036
 **  OPTIMIZATION CONVERGED  **
 **  OPTIMIZATION CONVERGED  **
 **  OPTIMIZATION CONVERGED  **
   12    -118.9624571536      6.04e-09  Convergence criterion met
 Total energy in the final basis set =     -118.9624571536
   12    -118.9635289414      5.52e-09  Convergence criterion met
 Total energy in the final basis set =     -118.9635289414
   12    -118.9645760882      3.16e-09  Convergence criterion met
 Total energy in the final basis set =     -118.9645760882
   12    -118.9648566419      1.48e-09  Convergence criterion met
 Total energy in the final basis set =     -118.9648566419
   12    -118.9649390433      1.45e-09  Convergence criterion met
 Total energy in the final basis set =     -118.9649390433
   12    -118.9649453029      2.51e-09  Convergence criterion met
 Total energy in the final basis set =     -118.9649453029

             Standard Nuclear Orientation (Angstroms)
    I     Atom           X                Y                Z
 ----------------------------------------------------------------
    1      C       1.2259941071    -0.4179646616     0.1751865065
    2      C      -0.1608053023     0.0924584547     0.5860064195
    3      H       1.8928616511    -0.5359249949     1.0475255277
    4      H       1.1546742947    -1.3996845771    -0.3283486928
    5      H       1.7136569693     0.2806255284    -0.5293173268
    6      C      -1.1069120628     0.2649048739    -0.6088722028
    7      H      -0.6106659783    -0.6092543793     1.3144943449
    8      H      -0.0563601945     1.0588417806     1.1157558823
    9      H      -2.0956254277     0.6444681864    -0.2958335193
   10      H      -0.6910031905     0.9772412662    -1.3450161706
   11      H      -1.2658443868    -0.6962059005    -1.1315953102
 ----------------------------------------------------------------

   11    -118.9649459686      4.51e-09  Convergence criterion met
 Total energy in the final basis set =     -118.9649459686

                    Orbital Energies (a.u.)
 --------------------------------------------------------------

 Alpha MOs
 -- Occupied --
 -9.8986  -9.8894  -9.8893  -0.7049  -0.6111  -0.5218  -0.4051  -0.3867
 -0.3507  -0.3331  -0.2950  -0.2934  -0.2833

          Ground-State Mulliken Net Atomic Charges

     Atom                 Charge (a.u.)
  ----------------------------------------
      1 C                    -0.687916
      2 C                    -0.337413
      3 H                     0.213666
      4 H                     0.214876
      5 H                     0.214817
      6 C                    -0.687926
      7 H                     0.213306
      8 H                     0.213225
      9 H                     0.213669
     10 H                     0.214664
     11 H                     0.215032
  ----------------------------------------
  Sum of atomic charges =     0.000000

                    Cartesian Multipole Moments
 -----------------------------------------------------------------
    Charge (ESU x 10^10)
                 0.0000
    Dipole Moment (Debye)
         X      -0.0235      Y       0.0177      Z       0.0853
       Tot       0.0903
    Quadrupole Moments (Debye-Ang)
        XX     -22.5192     XY       0.2383     YY     -21.8384
        XZ      -0.1219     YZ      -0.0261     ZZ     -22.2858

 Final energy is   -118.964945968637
 **  OPTIMIZATION CONVERGED  **
        *  Thank you very much for using Q-Chem.  Have a nice day.  *
