 Q-Chem 5.4, Q-Chem, Inc., Pleasanton, CA (2021)
 Q-Chem 5.4.0 for Intel X86 EM64T Linux

User input:
--------------------------------------------------------------
$comment
  Q-Force generated input for: propane
$end

$molecule
  0 1
  C    -5.467000     1.905000    -0.072000
  C    -3.959000     1.905000    -0.072000
  H    -5.856000     2.951000    -0.072000
  H    -5.860000     1.382000    -0.976000
  H    -5.860000     1.381000     0.833000
  C    -3.400000     0.505000    -0.072000
  H    -3.585000     2.457000    -0.974000
  H    -3.585000     2.457000     0.831000
  H    -2.283000     0.532000    -0.072000
  H    -3.739000    -0.054000     0.833000
  H    -3.739000    -0.054000    -0.977000
$end

$rem
  method = PBE
  basis = 6-31+G(D)
  dft_d = d3_bj
  jobtype = opt
  mem_total = 1500
  geom_opt_max_cycles = 100
  max_scf_cycles = 100
  xc_grid = 3
$end

--------------------------------------------------------------

   12    -118.9631222618      1.34e-09  Convergence criterion met
 Total energy in the final basis set =     -118.9631222618
    9    -118.9649144203      4.10e-09  Convergence criterion met
 Total energy in the final basis set =     -118.9649144203
    8    -118.9649482440      2.70e-09  Convergence criterion met
 Total energy in the final basis set =     -118.9649482440
    8    -118.9649494009      7.60e-10  Convergence criterion met
 Total energy in the final basis set =     -118.9649494009
 Final energy is   -118.964949400944
 **  OPTIMIZATION CONVERGED  **
 Total job time:  57.24s(wall), 727.70s(cpu)
        *  Thank you very much for using Q-Chem.  Have a nice day.  *

User input: 2 of 2

                  Welcome to Q-Chem
     A Quantum Leap Into The Future Of Chemistry

 Q-Chem 5.4 (devel), Q-Chem, Inc., Pleasanton, CA (2021)

 E. Epifanovsky,  A. T. B. Gilbert,  Xintian Feng,  Joonho Lee,  Yuezhi Mao,
 N. Mardirossian,  P. Pokhilko,  A. White,  M. Wormit,  M. P. Coons,
 A. L. Dempwolff,  Zhengting Gan,  D. Hait,  P. R. Horn,  L. D. Jacobson,
 I. Kaliman,  J. Kussmann,  A. W. Lange,  Ka Un Lao,  D. S. Levine,  Jie Liu,
 S. C. McKenzie,  A. F. Morrison,  K. Nanda,  F. Plasser,  D. R. Rehn,
 M. L. Vidal,  Zhi-Qiang You,  Ying Zhu,  B. Alam,  B. Albrecht,
 A. Aldossary,  E. Alguire,  J. H. Andersen,  D. Barton,  K. Begam,  A. Behn,
 Y. A. Bernard,  E. J. Berquist,  H. Burton,  A. Carreras,  K. Carter-Fenk,
 R. Chakraborty,  A. D. Chien,  K. D. Closser,  V. Cofer-Shabica,
 S. Dasgupta,  Jia Deng,  M. de Wergifosse,  M. Diedenhofen,  Hainam Do,
 S. Ehlert,  Po-Tung Fang,  S. Fatehi,  Qingguo Feng,  J. Gayvert,
 Qinghui Ge,  G. Gidofalvi,  M. Goldey,  J. Gomes,  C. Gonzalez-Espinoza,
 S. Gulania,  A. Gunina,  M. W. D. Hanson-Heine,  P. H. P. Harbach,
 A. W. Hauser,  M. F. Herbst,  M. Hernandez Vera,  M. Hodecker,
 Z. C. Holden,  S. Houck,  Xunkun Huang,  Kerwin Hui,  B. C. Huynh,
 M. Ivanov,  Hyunjun Ji,  Hanjie Jiang,  B. Kaduk,  S. Kaehler,
 K. Khistyaev,  Jaehoon Kim,  P. Klunzinger,  Z. Koczor-Benda,
 Joong Hoon Koh,  D. Kosenkov,  L. Koulias,  T. Kowalczyk,  C. M. Krauter,
 K. Kue,  A. Kunitsa,  T. Kus,  A. Landau,  K. V. Lawler,  D. Lefrancois,
 S. Lehtola,  Rain Li,  Yi-Pei Li,  Jiashu Liang,  M. Liebenthal,
 Hung-Hsuan Lin,  You-Sheng Lin,  Fenglai Liu,  Kuan-Yu Liu,
 M. Loipersberger,  A. Luenser,  A. Manjanath,  P. Manohar,  E. Mansoor,
 S. F. Manzer,  Shan-Ping Mao,  A. V. Marenich,  T. Markovich,  S. Mason,
 S. A. Maurer,  P. F. McLaughlin,  M. F. S. J. Menger,  J.-M. Mewes,
 S. A. Mewes,  P. Morgante,  J. W. Mullinax,  T. S. Nguyen-Beck,
 K. J. Oosterbaan,  G. Paran,  Alexander C. Paul,  Suranjan K. Paul,
 F. Pavosevic,  Zheng Pei,  S. Prager,  E. I. Proynov,  E. Ramos,  B. Rana,
 A. E. Rask,  A. Rettig,  R. M. Richard,  F. Rob,  E. Rossomme,  T. Scheele,
 M. Scheurer,  M. Schneider,  N. Sergueev,  S. M. Sharada,  W. Skomorowski,
 D. W. Small,  C. J. Stein,  Yu-Chuan Su,  E. J. Sundstrom,  Zhen Tao,
 J. Thirman,  T. Tsuchimochi,  N. M. Tubman,  S. P. Veccham,  O. Vydrov,
 J. Wenzel,  J. Witte,  A. Yamada,  Kun Yao,  S. Yeganeh,  S. R. Yost,
 A. Zech,  Igor Ying Zhang,  Xing Zhang,  Yu Zhang,  D. Zuev,
 A. Aspuru-Guzik,  A. T. Bell,  N. A. Besley,  K. B. Bravaya,  B. R. Brooks,
 D. Casanova,  Jeng-Da Chai,  S. Coriani,  C. J. Cramer,
 A. E. DePrince, III,  R. A. DiStasio Jr.,  A. Dreuw,  B. D. Dunietz,
 T. R. Furlani,  W. A. Goddard III,  S. Grimme,  S. Hammes-Schiffer,
 T. Head-Gordon,  W. J. Hehre,  Chao-Ping Hsu,  T.-C. Jagau,  Yousung Jung,
 A. Klamt,  Jing Kong,  D. S. Lambrecht,  WanZhen Liang,  N. J. Mayhall,
 C. W. McCurdy,  J. B. Neaton,  C. Ochsenfeld,  J. A. Parkhill,  R. Peverati,
 V. A. Rassolov,  Yihan Shao,  L. V. Slipchenko,  T. Stauch,  R. P. Steele,
 J. E. Subotnik,  A. J. W. Thom,  A. Tkatchenko,  D. G. Truhlar,
 T. Van Voorhis,  T. A. Wesolowski,  K. B. Whaley,  H. L. Woodcock III,
 P. M. Zimmerman,  S. Faraji,  P. M. W. Gill,  M. Head-Gordon,
 J. M. Herbert,  A. I. Krylov

 Contributors to earlier versions of Q-Chem not listed above:
 R. D. Adamson,  B. Austin,  R. Baer,  J. Baker,  G. J. O. Beran,
 K. Brandhorst,  S. T. Brown,  E. F. C. Byrd,  A. K. Chakraborty,
 G. K. L. Chan,  Chun-Min Chang,  Yunqing Chen,  C.-L. Cheng,
 Siu Hung Chien,  D. M. Chipman,  D. L. Crittenden,  H. Dachsel,
 R. J. Doerksen,  A. D. Dutoi,  R. G. Edgar,  J. Fosso-Tande,
 L. Fusti-Molnar,  D. Ghosh,  A. Ghysels,  A. Golubeva-Zadorozhnaya,
 J. Gonthier,  M. S. Gordon,  S. R. Gwaltney,  G. Hawkins,  J. E. Herr,
 A. Heyden,  S. Hirata,  E. G. Hohenstein,  G. Kedziora,  F. J. Keil,
 C. Kelley,  Jihan Kim,  R. A. King,  R. Z. Khaliullin,  P. P. Korambath,
 W. Kurlancheek,  A. Laurent,  A. M. Lee,  M. S. Lee,  S. V. Levchenko,
 Ching Yeh Lin,  D. Liotard,  E. Livshits,  R. C. Lochan,  I. Lotan,
 L. A. Martinez-Martinez,  P. E. Maslen,  N. Nair,  D. P. O'Neill,
 D. Neuhauser,  E. Neuscamman,  C. M. Oana,  R. Olivares-Amaya,  R. Olson,
 T. M. Perrine,  B. Peters,  P. A. Pieniazek,  A. Prociuk,  Y. M. Rhee,
 J. Ritchie,  M. A. Rohrdanz,  E. Rosta,  N. J. Russ,  H. F. Schaefer III,
 M. W. Schmidt,  N. E. Schultz,  S. Sharma,  N. Shenvi,  C. D. Sherrill,
 A. C. Simmonett,  A. Sodt,  T. Stein,  D. Stuck,  K. S. Thanthiriwatte,
 V. Vanovschi,  L. Vogt,  Tao Wang,  A. Warshel,  M. A. Watson,
 C. F. Williams,  Q. Wu,  X. Xu,  Jun Yang,  W. Zhang,  Yan Zhao

 Please cite Q-Chem as follows:
 Y. Shao et al., Mol. Phys. 113, 184-215 (2015)
 DOI: 10.1080/00268976.2014.952696

 Q-Chem 5.4.0 for Intel X86 EM64T Linux

 Parts of Q-Chem use Armadillo 9.800.1 (Horizon Scraper).
 http://arma.sourceforge.net/

 Q-Chem begins on Fri Jun 25 04:32:23 2021

--------------------------------------------------------------
User input:
--------------------------------------------------------------

$molecule
  read
$end

$rem
  method = PBE
  basis = 6-31+G(D)
  dft_d = d3_bj
  jobtype = freq
  cm5 = true
  resp_charges = true
  nbo = 2
  iqmol_fchk = true
  mem_total = 1500
  geom_opt_max_cycles = 100
  max_scf_cycles = 100
  xc_grid = 3
$end

$nbo
  nbo
  bndidx
$end

--------------------------------------------------------------

             Standard Nuclear Orientation (Angstroms)
    I     Atom           X                Y                Z
 ----------------------------------------------------------------
    1      C       1.2770112021    -0.2603484023     0.0000017522
    2      C      -0.0000074463     0.5887968828     0.0000013278
    3      H       2.1853607237     0.3678043320    -0.0000004140
    4      H       1.3199575064    -0.9133881587     0.8910742632
    5      H       1.3199553660    -0.9133756348    -0.8910808773
    6      C      -1.2769977532    -0.2603495419    -0.0000001891
    7      H      -0.0000033645     1.2546695447     0.8843762231
    8      H       0.0000038178     1.2546558193    -0.8843836856
    9      H      -2.1853686029     0.3677873379     0.0000676769
   10      H      -1.3200010341    -0.9133234598    -0.8911182995
   11      H      -1.3199404277    -0.9134234124     0.8910477683
 ----------------------------------------------------------------

   11    -118.9649494008      5.04e-09  Convergence criterion met
 Total energy in the final basis set =     -118.9649494008

                    Orbital Energies (a.u.)
 --------------------------------------------------------------

 Alpha MOs
 -- Occupied --
 -9.8985  -9.8893  -9.8893  -0.7049  -0.6111  -0.5218  -0.4051  -0.3867
 -0.3507  -0.3331  -0.2950  -0.2934  -0.2833

          Ground-State Mulliken Net Atomic Charges

     Atom                 Charge (a.u.)
  ----------------------------------------
      1 C                    -0.687897
      2 C                    -0.337450
      3 H                     0.213661
      4 H                     0.214849
      5 H                     0.214849
      6 C                    -0.687906
      7 H                     0.213268
      8 H                     0.213268
      9 H                     0.213660
     10 H                     0.214850
     11 H                     0.214849
  ----------------------------------------
  Sum of atomic charges =     0.000000

                    Cartesian Multipole Moments
 -----------------------------------------------------------------
    Charge (ESU x 10^10)
                 0.0000
    Dipole Moment (Debye)
         X      -0.0000      Y       0.0903      Z      -0.0000
       Tot       0.0903
    Quadrupole Moments (Debye-Ang)
        XX     -22.6284     XY       0.0001     YY     -22.2620
        XZ      -0.0000     YZ      -0.0000     ZZ     -21.7571

 Frequency:       219.40                 270.62                 359.67
 Force Cnst:      0.0292                 0.0490                 0.1563
 Red. Mass:       1.0281                 1.1360                 2.0506
 IR Intens:        0.000                  0.000                  0.060
 Frequency:       734.77                 868.49                 889.31
 Force Cnst:      0.3434                 1.1123                 0.5138
 Red. Mass:       1.0797                 2.5029                 1.1027
 IR Intens:        4.016                  1.111                  0.000
 Frequency:       908.24                1054.93                1148.79
 Force Cnst:      0.5788                 1.5779                 1.4196
 Red. Mass:       1.1909                 2.4065                 1.8257
 IR Intens:        2.610                  0.862                  1.178
 Frequency:      1181.35                1283.94                1329.51
 Force Cnst:      1.3769                 1.0937                 1.4802
 Red. Mass:       1.6745                 1.1261                 1.4213
 IR Intens:        0.188                  0.000                  2.881
 Frequency:      1374.61                1391.48                1464.33
 Force Cnst:      1.4374                 1.4094                 1.3101
 Red. Mass:       1.2911                 1.2355                 1.0370
 IR Intens:        7.495                  4.129                  0.000
 Frequency:      1464.71                1471.34                1483.04
 Force Cnst:      1.3267                 1.3407                 1.3480
 Red. Mass:       1.0496                 1.0512                 1.0403
 IR Intens:        0.012                  3.688                 19.374
 Frequency:      1486.61                2965.06                2968.26
 Force Cnst:      1.3988                 5.4910                 5.3737
 Red. Mass:       1.0743                 1.0601                 1.0352
 IR Intens:        7.824                 29.637                 44.578
 Frequency:      2971.48                2993.14                3035.18
 Force Cnst:      5.3880                 5.8113                 5.9796
 Red. Mass:       1.0357                 1.1010                 1.1017
 IR Intens:       28.149                  5.973                  0.000
 Frequency:      3044.21                3045.39                3047.27
 Force Cnst:      6.0193                 6.0195                 6.0178
 Red. Mass:       1.1024                 1.1016                 1.0999
 IR Intens:       96.479                 29.519                 51.430

 STANDARD THERMODYNAMIC QUANTITIES AT   298.15 K  AND     1.00 ATM

   This Molecule has  0 Imaginary Frequencies
   Zero point vibrational energy:       63.552 kcal/mol

   Atom    1 Element C  Has Mass   12.00000
   Atom    2 Element C  Has Mass   12.00000
   Atom    3 Element H  Has Mass    1.00783
   Atom    4 Element H  Has Mass    1.00783
   Atom    5 Element H  Has Mass    1.00783
   Atom    6 Element C  Has Mass   12.00000
   Atom    7 Element H  Has Mass    1.00783
   Atom    8 Element H  Has Mass    1.00783
   Atom    9 Element H  Has Mass    1.00783
   Atom   10 Element H  Has Mass    1.00783
   Atom   11 Element H  Has Mass    1.00783
   Molecular Mass:    44.062640 amu
   Principal axes and moments of inertia in amu*Bohr^2:
                             1           2           3
    Eigenvalues --       62.02767   216.28315   244.18952
          X               1.00000     0.00000    -0.00000
          Y              -0.00000     1.00000    -0.00000
          Z               0.00000     0.00000     1.00000
   Rotational Symmetry Number is   1
   The Molecule is an Asymmetric Top
   Translational Enthalpy:        0.889 kcal/mol
   Rotational Enthalpy:           0.889 kcal/mol
   Vibrational Enthalpy:         64.645 kcal/mol
   gas constant (RT):             0.592 kcal/mol
   Translational Entropy:        37.275  cal/mol.K
   Rotational Entropy:           22.709  cal/mol.K
   Vibrational Entropy:           5.715  cal/mol.K

   Total Enthalpy:               67.015 kcal/mol
   Total Entropy:                65.698  cal/mol.K

        *  Thank you very much for using Q-Chem.  Have a nice day.  *
