 Gaussian 16, Revision B.01,
 Gaussian 16:  ES64L-G16RevB.01 20-Dec-2017

 --------------------------------------------
 #freq opt PBEPBE 6-31G(D) pop=(CM5, NBOREAD)
 --------------------------------------------

 ---------------
 propane_hessian
 ---------------
 Symbolic Z-matrix:
 Charge =  0 Multiplicity = 1

 SCF Done:  E(RPBE-PBE) =  -118.953081384     A.U. after   12 cycles
 SCF Done:  E(RPBE-PBE) =  -118.954940865     A.U. after   10 cycles
 SCF Done:  E(RPBE-PBE) =  -118.954973389     A.U. after    8 cycles
 SCF Done:  E(RPBE-PBE) =  -118.954974163     A.U. after    6 cycles
 Optimization completed.
    -- Stationary point found.
 Normal termination of Gaussian 16 at Sat Nov 30 12:58:56 2019.

 ---------------------------------------------------------------------
 #N Geom=AllCheck Guess=TCheck SCRF=Check GenChk RPBEPBE/6-31G(d) Freq
 ---------------------------------------------------------------------

 Structure from the checkpoint file:  "propane_hessian.chk"
 ---------------
 propane_hessian
 ---------------
 Charge =  0 Multiplicity = 1

                         Standard orientation:
 ---------------------------------------------------------------------
 Center     Atomic      Atomic             Coordinates (Angstroms)
 Number     Number       Type             X           Y           Z
 ---------------------------------------------------------------------
      1          6           0       -1.277611   -0.259902    0.000063
      2          6           0        0.000008    0.587261    0.000061
      3          1           0       -2.184347    0.369493    0.000197
      4          1           0       -1.322546   -0.912754   -0.890295
      5          1           0       -1.322414   -0.912935    0.890295
      6          6           0        1.277597   -0.259903   -0.000118
      7          1           0       -0.000061    1.253929   -0.883200
      8          1           0        0.000059    1.253732    0.883470
      9          1           0        2.184357    0.369473   -0.000170
     10          1           0        1.322580   -0.912892    0.890136
     11          1           0        1.322407   -0.912781   -0.890463
 ---------------------------------------------------------------------

 SCF Done:  E(RPBE-PBE) =  -118.954974163     A.U. after    1 cycles

 The electronic state is 1-A.
 Alpha  occ. eigenvalues --   -9.89190  -9.88300  -9.88299  -0.69797  -0.60470
 Alpha  occ. eigenvalues --   -0.51548  -0.39830  -0.38004  -0.34424  -0.32662
 Alpha  occ. eigenvalues --   -0.28824  -0.28660  -0.27673
 Alpha virt. eigenvalues --    0.07297   0.11906   0.12216   0.12498   0.14419
 Alpha virt. eigenvalues --    0.16380   0.16687   0.16697   0.19434   0.23017
 Alpha virt. eigenvalues --    0.47878   0.48538   0.51564   0.52649   0.55220

 Mulliken charges:
               1
     1  C   -0.475528
     2  C   -0.275511
     3  H    0.155317
     4  H    0.154652
     5  H    0.154652
     6  C   -0.475527
     7  H    0.148663
     8  H    0.148663
     9  H    0.155314
    10  H    0.154653
    11  H    0.154652
 Sum of Mulliken charges =   0.00000

 Dipole moment (field-independent basis, Debye):
    X=              0.0000    Y=              0.0541    Z=              0.0000  Tot=              0.0541
 Quadrupole moment (field-independent basis, Debye-Ang):
   XX=            -21.7881   YY=            -21.5127   ZZ=            -21.1921
   XY=             -0.0001   XZ=              0.0000   YZ=             -0.0000

  Exact polarizability:  37.293   0.000  33.318  -0.000   0.000  32.407
 Approx polarizability:  50.198   0.000  50.366  -0.000  -0.000  51.005

 Summary of Natural Population Analysis:

                                       Natural Population
                Natural  -----------------------------------------------
    Atom  No    Charge         Core      Valence    Rydberg      Total
 -----------------------------------------------------------------------
      C    1   -0.71016      1.99945     4.70414    0.00657     6.71016
      C    2   -0.48221      1.99937     4.47475    0.00809     6.48221
      H    3    0.24189      0.00000     0.75731    0.00080     0.75811
      H    4    0.23479      0.00000     0.76406    0.00116     0.76521
      H    5    0.23479      0.00000     0.76406    0.00116     0.76521
      C    6   -0.71016      1.99945     4.70414    0.00657     6.71016
      H    7    0.23980      0.00000     0.75863    0.00157     0.76020
      H    8    0.23980      0.00000     0.75863    0.00157     0.76020
      H    9    0.24189      0.00000     0.75731    0.00080     0.75811
      H   10    0.23479      0.00000     0.76406    0.00116     0.76521
      H   11    0.23479      0.00000     0.76406    0.00116     0.76521
 =======================================================================
   * Total *   -0.00000      5.99827    19.97115    0.03058    26.00000

                      1                      2                      3
                      A                      A                      A
 Frequencies --    223.8919               270.8877               357.2467
 Red. masses --      1.0280                 1.1368                 2.0495
 Frc consts  --      0.0304                 0.0491                 0.1541
 IR Inten    --      0.0000                 0.0004                 0.2013

                      4                      5                      6
                      A                      A                      A
 Frequencies --    735.8323               871.1171               891.6656
 Red. masses --      1.0794                 2.4981                 1.1023
 Frc consts  --      0.3443                 1.1169                 0.5164
 IR Inten    --      4.9329                 1.1296                 0.0000

                      7                      8                      9
                      A                      A                      A
 Frequencies --    910.9847              1056.9039              1154.2022
 Red. masses --      1.1904                 2.3743                 1.8204
 Frc consts  --      0.5821                 1.5627                 1.4289
 IR Inten    --      3.0917                 0.3795                 1.4773

                     10                     11                     12
                      A                      A                      A
 Frequencies --   1186.7807              1290.3960              1336.4547
 Red. masses --      1.6736                 1.1252                 1.4174
 Frc consts  --      1.3888                 1.1038                 1.4916
 IR Inten    --      0.4379                 0.0000                 4.2431

                     13                     14                     15
                      A                      A                      A
 Frequencies --   1382.4963              1398.8648              1471.2413
 Red. masses --      1.3028                 1.2383                 1.0492
 Frc consts  --      1.4671                 1.4277                 1.3381
 IR Inten    --      4.6706                 2.1849                 0.0109

                     16                     17                     18
                      A                      A                      A
 Frequencies --   1472.3202              1480.4559              1490.5985
 Red. masses --      1.0378                 1.0517                 1.0403
 Frc consts  --      1.3255                 1.3581                 1.3619
 IR Inten    --      0.0000                 2.0575                12.6909

                     19                     20                     21
                      A                      A                      A
 Frequencies --   1496.2691              2970.1493              2974.6734
 Red. masses --      1.0742                 1.0600                 1.0354
 Frc consts  --      1.4170                 5.5095                 5.3978
 IR Inten    --      4.1801                20.6837                35.2914

                     22                     23                     24
                      A                      A                      A
 Frequencies --   2978.1526              3000.1893              3043.4304
 Red. masses --      1.0364                 1.1014                 1.1020
 Frc consts  --      5.4158                 5.8413                 6.0139
 IR Inten    --     28.5384                 6.5712                 0.0000

                     25                     26                     27
                      A                      A                      A
 Frequencies --   3052.6902              3053.9763              3056.0868
 Red. masses --      1.1026                 1.1020                 1.1006
 Frc consts  --      6.0538                 6.0555                 6.0564
 IR Inten    --     91.3124                27.2397                47.9730

 - Thermochemistry -
 -------------------
 Temperature   298.150 Kelvin.  Pressure   1.00000 Atm.
 Atom     1 has atomic number  6 and mass  12.00000

 Molecular mass:    44.06260 amu.
 Principal axes and moments of inertia in atomic units:
                           1         2         3
     Eigenvalues --    61.87682 216.44476 244.26721
           X            1.00000  -0.00000   0.00007
           Y            0.00000   1.00000  -0.00011
           Z           -0.00007   0.00011   1.00000
 This molecule is an asymmetric top.
 Rotational symmetry number  1.
 Rotational temperatures (Kelvin)      1.39978     0.40017     0.35459
 Rotational constants (GHZ):          29.16668     8.33811     7.38839
 Zero-point vibrational energy     266814.8 (Joules/Mol)
                                   63.77028 (Kcal/Mol)
 Warning -- explicit consideration of   3 degrees of freedom as
           vibrations may cause significant error
 Vibrational temperatures:    322.13   389.75   514.00  1058.70  1253.34
          (Kelvin)           1282.91  1310.70  1520.65  1660.64  1707.51
                             1856.59  1922.86  1989.10  2012.65  2116.79
                             2118.34  2130.05  2144.64  2152.80  4273.38
                             4279.89  4284.90  4316.60  4378.82  4392.14
                             4393.99  4397.03

 Zero-point correction=                           0.101624 (Hartree/Particle)
 Thermal correction to Energy=                    0.106190
 Thermal correction to Enthalpy=                  0.107134
 Thermal correction to Gibbs Free Energy=         0.075938
 Sum of electronic and zero-point Energies=           -118.853350
 Sum of electronic and thermal Energies=              -118.848784
 Sum of electronic and thermal Enthalpies=            -118.847840
 Sum of electronic and thermal Free Energies=         -118.879036

                     E (Thermal)             CV                S
                      KCal/Mol        Cal/Mol-Kelvin    Cal/Mol-Kelvin
 Total                   66.635             15.025             65.656
 Electronic               0.000              0.000              0.000
 Translational            0.889              2.981             37.275
 Rotational               0.889              2.981             22.708
 Vibrational             64.858              9.064              5.674
 Vibration     1          0.649              1.805              1.927
 Vibration     2          0.675              1.727              1.591
 Vibration     3          0.732              1.560              1.134

 Optimization completed.
    -- Stationary point found.
 Normal termination of Gaussian 16 at Sat Nov 30 12:59:03 2019.
