                         Program Version 5.0.3 -  RELEASE  -
|  1> * xyz   0   1
|  2>    C    -5.467000     1.905000    -0.072000
|  3>    C    -3.959000     1.905000    -0.072000
|  4>    H    -5.856000     2.951000    -0.072000
|  5>    H    -5.860000     1.382000    -0.976000
|  6>    H    -5.860000     1.381000     0.833000
|  7>    C    -3.400000     0.505000    -0.072000
|  8>    H    -3.585000     2.457000    -0.974000
|  9>    H    -3.585000     2.457000     0.831000
| 10>    H    -2.283000     0.532000    -0.072000
| 11>    H    -3.739000    -0.054000     0.833000
| 12>    H    -3.739000    -0.054000    -0.977000
| 13>   *
| 14>
| 15>  %pal nprocs  1 end
| 16>  %maxcore  3000
| 17>
| 18>
| 19>                          ****END OF INPUT****
|  1>   ! opt r2SCAN-3c nopop
|  2>   %base "propane_initial"
|  3>
|  4>                          ****END OF INPUT****
 Total Charge           Charge          ....    0
 Multiplicity           Mult            ....    1
 Number of Electrons    NEL             ....   26
Dispersion correction           -0.001709375
FINAL SINGLE POINT ENERGY      -119.094357374291
Dispersion correction            ... Starting D4
Dispersion correction           -0.001705301
FINAL SINGLE POINT ENERGY      -119.097327941355
Dispersion correction            ... Starting D4
Dispersion correction           -0.001704109
FINAL SINGLE POINT ENERGY      -119.097372177703
Dispersion correction            ... Starting D4
FINAL SINGLE POINT ENERGY      -119.097375501132
                    ***********************HURRAY********************
FINAL SINGLE POINT ENERGY      -119.097376388044
|  1>   ! opt freq B3LYP D4 def2-TZVP def2/J RIJCOSX PModel nopop
|  2>   %base "propane_opt"
|  3>
|  4>                          ****END OF INPUT****
FINAL SINGLE POINT ENERGY      -119.106319160622
FINAL SINGLE POINT ENERGY      -119.106344240972
Dispersion correction            ... Starting D4
Dispersion correction           -0.008247680
FINAL SINGLE POINT ENERGY      -119.106345690062
Dispersion correction            ... Starting D4
                    ***********************HURRAY********************
Dispersion correction           -0.008246469
FINAL SINGLE POINT ENERGY      -119.106346264698
Dispersion correction in the Hessian             ... Starting D4

VIBRATIONAL FREQUENCIES
-----------------------

Scaling factor for frequencies =  1.000000000  (already applied!)

   0:         0.00 cm**-1
   1:         0.00 cm**-1
   2:         0.00 cm**-1
   3:         0.00 cm**-1
   4:         0.00 cm**-1
   5:         0.00 cm**-1
   6:       219.88 cm**-1
   7:       269.81 cm**-1
   8:       370.24 cm**-1
   9:       754.28 cm**-1
  10:       873.34 cm**-1
  11:       913.69 cm**-1
  12:       934.38 cm**-1
  13:      1057.92 cm**-1
  14:      1178.70 cm**-1
  15:      1215.95 cm**-1
  16:      1317.87 cm**-1
  17:      1370.30 cm**-1
  18:      1404.51 cm**-1
  19:      1422.36 cm**-1
  20:      1489.51 cm**-1
  21:      1490.76 cm**-1
  22:      1496.02 cm**-1
  23:      1506.65 cm**-1
  24:      1512.48 cm**-1
  25:      3014.97 cm**-1
  26:      3018.74 cm**-1
  27:      3022.59 cm**-1
  28:      3033.99 cm**-1
  29:      3072.80 cm**-1
  30:      3084.22 cm**-1
  31:      3084.23 cm**-1
  32:      3086.94 cm**-1

IR SPECTRUM
-----------

 Mode   freq       eps      Int      T**2         TX        TY        TZ
       cm**-1   L/(mol*cm) km/mol    a.u.
----------------------------------------------------------------------------
  6:    219.88   0.000000    0.00  0.000000  (-0.000000 -0.000000  0.000008)
  7:    269.81   0.000000    0.00  0.000000  (-0.000000  0.000000  0.000160)
  8:    370.24   0.000010    0.05  0.000009  ( 0.001615  0.002484  0.000000)
  9:    754.28   0.000550    2.78  0.000227  (-0.000000  0.000002 -0.015081)
 10:    873.34   0.000145    0.73  0.000052  (-0.004032 -0.005948 -0.000001)
 11:    913.69   0.000000    0.00  0.000000  ( 0.000000  0.000000 -0.000028)
 12:    934.38   0.000252    1.27  0.000084  ( 0.007616 -0.005106 -0.000001)
 13:   1057.92   0.000195    0.98  0.000057  (-0.006284  0.004237  0.000001)
 14:   1178.70   0.000206    1.04  0.000054  ( 0.004133  0.006111  0.000001)
 15:   1215.95   0.000016    0.08  0.000004  (-0.000000 -0.000001  0.002039)
 16:   1317.87   0.000000    0.00  0.000000  (-0.000000 -0.000000 -0.000040)
 17:   1370.30   0.000580    2.93  0.000132  ( 0.009531 -0.006417 -0.000001)
 18:   1404.51   0.000787    3.97  0.000175  (-0.010930  0.007435  0.000001)
 19:   1422.36   0.000557    2.81  0.000122  ( 0.006182  0.009163  0.000001)
 20:   1489.51   0.000000    0.00  0.000000  (-0.000000  0.000000  0.000016)
 21:   1490.76   0.000003    0.01  0.000001  (-0.000513 -0.000597  0.000000)
 22:   1496.02   0.000470    2.37  0.000098  (-0.008200  0.005547  0.000001)
 23:   1506.65   0.002860   14.45  0.000592  (-0.000000  0.000003 -0.024338)
 24:   1512.48   0.001174    5.93  0.000242  ( 0.008732  0.012882  0.000002)
 25:   3014.97   0.003872   19.57  0.000401  ( 0.011056  0.016690  0.000002)
 26:   3018.74   0.007026   35.51  0.000726  (-0.022412  0.014968  0.000002)
 27:   3022.59   0.006141   31.03  0.000634  ( 0.014068  0.020884  0.000003)
 28:   3033.99   0.000760    3.84  0.000078  (-0.000001 -0.000002  0.008839)
 29:   3072.80   0.000001    0.01  0.000000  (-0.000000  0.000001 -0.000318)
 30:   3084.22   0.006383   32.26  0.000646  (-0.022145  0.012439 -0.000848)
 31:   3084.23   0.019698   99.55  0.001993  ( 0.000423 -0.000229 -0.044642)
 32:   3086.94   0.010421   52.66  0.001053  ( 0.016806  0.027768  0.000007)

--------------------------
THERMOCHEMISTRY AT 298.15K
--------------------------

Temperature         ... 298.15 K
Pressure            ... 1.00 atm
Total Mass          ... 44.10 AMU

Throughout the following assumptions are being made:
  (1) The electronic state is orbitally nondegenerate
  (2) There are no thermally accessible electronically excited states
  (3) Hindered rotations indicated by low frequency modes are not
      treated as such but are treated as vibrations and this may
      cause some error
  (4) All equations used are the standard statistical mechanics
      equations for an ideal gas
  (5) All vibrations are strictly harmonic

freq.     219.88  E(vib)   ...       0.33
freq.     269.81  E(vib)   ...       0.29
freq.     370.24  E(vib)   ...       0.21
freq.     754.28  E(vib)   ...       0.06
freq.     873.34  E(vib)   ...       0.04
freq.     913.69  E(vib)   ...       0.03
freq.     934.38  E(vib)   ...       0.03
freq.    1057.92  E(vib)   ...       0.02
freq.    1178.70  E(vib)   ...       0.01
freq.    1215.95  E(vib)   ...       0.01
freq.    1317.87  E(vib)   ...       0.01
freq.    1370.30  E(vib)   ...       0.01
freq.    1404.51  E(vib)   ...       0.00
freq.    1422.36  E(vib)   ...       0.00
freq.    1489.51  E(vib)   ...       0.00
freq.    1490.76  E(vib)   ...       0.00
freq.    1496.02  E(vib)   ...       0.00
freq.    1506.65  E(vib)   ...       0.00
freq.    1512.48  E(vib)   ...       0.00
freq.    3014.97  E(vib)   ...       0.00
freq.    3018.74  E(vib)   ...       0.00
freq.    3022.59  E(vib)   ...       0.00
freq.    3033.99  E(vib)   ...       0.00
freq.    3072.80  E(vib)   ...       0.00
freq.    3084.22  E(vib)   ...       0.00
freq.    3084.23  E(vib)   ...       0.00
freq.    3086.94  E(vib)   ...       0.00

------------
INNER ENERGY
------------

The inner energy is: U= E(el) + E(ZPE) + E(vib) + E(rot) + E(trans)
    E(el)   - is the total energy from the electronic structure calculation
              = E(kin-el) + E(nuc-el) + E(el-el) + E(nuc-nuc)
    E(ZPE)  - the the zero temperature vibrational energy from the frequency calculation
    E(vib)  - the the finite temperature correction to E(ZPE) due to population
              of excited vibrational states
    E(rot)  - is the rotational thermal energy
    E(trans)- is the translational thermal energy

Summary of contributions to the inner energy U:
Electronic energy                ...   -119.10634626 Eh
Zero point energy                ...      0.10301214 Eh      64.64 kcal/mol
Thermal vibrational correction   ...      0.00170107 Eh       1.07 kcal/mol
Thermal rotational correction    ...      0.00141627 Eh       0.89 kcal/mol
Thermal translational correction ...      0.00141627 Eh       0.89 kcal/mol
-----------------------------------------------------------------------
Total thermal energy                   -118.99880051 Eh

Summary of corrections to the electronic energy:
(perhaps to be used in another calculation)
Total thermal correction                  0.00453361 Eh       2.84 kcal/mol
Non-thermal (ZPE) correction              0.10301214 Eh      64.64 kcal/mol
-----------------------------------------------------------------------
Total correction                          0.10754576 Eh      67.49 kcal/mol

--------
ENTHALPY
--------

The enthalpy is H = U + kB*T
                kB is Boltzmann's constant
Total free energy                 ...   -118.99880051 Eh
Thermal Enthalpy correction       ...      0.00094421 Eh       0.59 kcal/mol
-----------------------------------------------------------------------
Total Enthalpy                    ...   -118.99785630 Eh

Note: Rotational entropy computed according to Herzberg
Infrared and Raman Spectra, Chapter V,1, Van Nostrand Reinhold, 1945
Point Group:  Cs, Symmetry Number:   1
Rotational constants in cm-1:     0.985616     0.281042     0.248876

Vibrational entropy computed according to the QRRHO of S. Grimme
Chem.Eur.J. 2012 18 9955

-------
ENTROPY
-------

The entropy contributions are T*S = T*(S(el)+S(vib)+S(rot)+S(trans))
     S(el)   - electronic entropy
     S(vib)  - vibrational entropy
     S(rot)  - rotational entropy
     S(trans)- translational entropy
The entropies will be listed as multiplied by the temperature to get
units of energy

Electronic entropy                ...      0.00000000 Eh      0.00 kcal/mol
Vibrational entropy               ...      0.00266216 Eh      1.67 kcal/mol
Rotational entropy                ...      0.01077344 Eh      6.76 kcal/mol
Translational entropy             ...      0.01771163 Eh     11.11 kcal/mol
-----------------------------------------------------------------------
Final entropy term                ...      0.03114723 Eh     19.55 kcal/mol

In case the symmetry of your molecule has not been determined correctly
or in case you have a reason to use a different symmetry number we print
out the resulting rotational entropy values for sn=1,12 :
 --------------------------------------------------------
|  sn= 1 | S(rot)=       0.01077344 Eh      6.76 kcal/mol|
|  sn= 2 | S(rot)=       0.01011898 Eh      6.35 kcal/mol|
|  sn= 3 | S(rot)=       0.00973615 Eh      6.11 kcal/mol|
|  sn= 4 | S(rot)=       0.00946452 Eh      5.94 kcal/mol|
|  sn= 5 | S(rot)=       0.00925383 Eh      5.81 kcal/mol|
|  sn= 6 | S(rot)=       0.00908169 Eh      5.70 kcal/mol|
|  sn= 7 | S(rot)=       0.00893614 Eh      5.61 kcal/mol|
|  sn= 8 | S(rot)=       0.00881007 Eh      5.53 kcal/mol|
|  sn= 9 | S(rot)=       0.00869886 Eh      5.46 kcal/mol|
|  sn=10 | S(rot)=       0.00859938 Eh      5.40 kcal/mol|
|  sn=11 | S(rot)=       0.00850939 Eh      5.34 kcal/mol|
|  sn=12 | S(rot)=       0.00842723 Eh      5.29 kcal/mol|
 --------------------------------------------------------

-------------------
GIBBS FREE ENERGY
-------------------

The Gibbs free energy is G = H - T*S

Total enthalpy                    ...   -118.99785630 Eh
Total entropy correction          ...     -0.03114723 Eh    -19.55 kcal/mol
-----------------------------------------------------------------------
Final Gibbs free energy         ...   -119.02900353 Eh

For completeness - the Gibbs free energy minus the electronic energy
G-E(el)                           ...      0.07734274 Eh     48.53 kcal/mol

|  1>   ! B3LYP D4 def2-TZVP def2/J RIJCOSX MAYER
|  2>   %base "propane_nbo"
|  3>   %method
|  4>     MAYER_BONDORDERTHRESH 0
|  5>   end
|  6>
|  7>                          ****END OF INPUT****

MULLIKEN ATOMIC CHARGES
-----------------------
   0 C :   -0.316036
   1 C :   -0.133763
   2 H :    0.105552
   3 H :    0.097344
   4 H :    0.097344
   5 C :   -0.316429
   6 H :    0.082699
   7 H :    0.082700
   8 H :    0.105734
   9 H :    0.097427
  10 H :    0.097427
Sum of atomic charges:   -0.0000000

LOEWDIN ATOMIC CHARGES
----------------------
   0 C :   -0.313426
   1 C :   -0.319017
   2 H :    0.115197
   3 H :    0.115030
   4 H :    0.115031
   5 C :   -0.313441
   6 H :    0.127683
   7 H :    0.127683
   8 H :    0.115225
   9 H :    0.115017
  10 H :    0.115017

  Mayer bond orders larger than 0.000000
B(  0-C ,  1-C ) :   0.9730 B(  0-C ,  2-H ) :   0.9759 B(  0-C ,  3-H ) :   0.9752
B(  0-C ,  4-H ) :   0.9752 B(  0-C ,  5-C ) :  -0.0135 B(  0-C ,  6-H ) :  -0.0051
B(  0-C ,  7-H ) :  -0.0051 B(  0-C ,  8-H ) :   0.0025 B(  0-C ,  9-H ) :  -0.0012
B(  0-C , 10-H ) :  -0.0012 B(  1-C ,  2-H ) :  -0.0040 B(  1-C ,  3-H ) :  -0.0041
B(  1-C ,  4-H ) :  -0.0041 B(  1-C ,  5-C ) :   0.9735 B(  1-C ,  6-H ) :   0.9697
B(  1-C ,  7-H ) :   0.9697 B(  1-C ,  8-H ) :  -0.0041 B(  1-C ,  9-H ) :  -0.0040
B(  1-C , 10-H ) :  -0.0040 B(  2-H ,  3-H ) :  -0.0037 B(  2-H ,  4-H ) :  -0.0037
B(  2-H ,  5-C ) :   0.0025 B(  2-H ,  6-H ) :  -0.0014 B(  2-H ,  7-H ) :  -0.0014
B(  2-H ,  8-H ) :   0.0027 B(  2-H ,  9-H ) :   0.0006 B(  2-H , 10-H ) :   0.0006
B(  3-H ,  4-H ) :  -0.0059 B(  3-H ,  5-C ) :  -0.0011 B(  3-H ,  6-H ) :  -0.0021
B(  3-H ,  7-H ) :   0.0079 B(  3-H ,  8-H ) :   0.0006 B(  3-H ,  9-H ) :   0.0001
B(  3-H , 10-H ) :   0.0039 B(  4-H ,  5-C ) :  -0.0011 B(  4-H ,  6-H ) :   0.0079
B(  4-H ,  7-H ) :  -0.0021 B(  4-H ,  8-H ) :   0.0006 B(  4-H ,  9-H ) :   0.0039
B(  4-H , 10-H ) :   0.0001 B(  5-C ,  6-H ) :  -0.0051 B(  5-C ,  7-H ) :  -0.0051
B(  5-C ,  8-H ) :   0.9759 B(  5-C ,  9-H ) :   0.9751 B(  5-C , 10-H ) :   0.9751
B(  6-H ,  7-H ) :  -0.0075 B(  6-H ,  8-H ) :  -0.0014 B(  6-H ,  9-H ) :   0.0079
B(  6-H , 10-H ) :  -0.0022 B(  7-H ,  8-H ) :  -0.0014 B(  7-H ,  9-H ) :  -0.0022
B(  7-H , 10-H ) :   0.0079 B(  8-H ,  9-H ) :  -0.0037 B(  8-H , 10-H ) :  -0.0037
B(  9-H , 10-H ) :  -0.0059

Dispersion correction           -0.008246469
FINAL SINGLE POINT ENERGY      -119.106346264137
|  1>   ! HF 6-31G* chelpg Hirshfeld nopop
|  2>   %base "propane_charge"
|  3>
|  4>                          ****END OF INPUT****

CARTESIAN COORDINATES (ANGSTROEM)
---------------------------------
  C     -5.484549    1.920703   -0.071749
  C     -3.957282    1.907798   -0.071756
  H     -5.878378    2.939182   -0.071624
  H     -5.881018    1.409969   -0.953360
  H     -5.881010    1.409757    0.809744
  C     -3.378242    0.494381   -0.071934
  H     -3.588178    2.452741   -0.946289
  H     -3.588174    2.452521    0.802911
  H     -2.286303    0.507052   -0.071963
  H     -3.704908   -0.063653    0.809613
  H     -3.704959   -0.063450   -0.953592

 Multiplicity           Mult            ....    1
 Number of Electrons    NEL             ....   26
 Basis Dimension        Dim             ....   58

ORBITAL ENERGIES
----------------

  NO   OCC          E(Eh)            E(eV)
   0   2.0000     -11.214999      -305.1756
   1   2.0000     -11.206715      -304.9502
   2   2.0000     -11.206676      -304.9491
   3   2.0000      -1.052154       -28.6306
   4   2.0000      -0.924733       -25.1633
   5   2.0000      -0.799500       -21.7555
   6   2.0000      -0.622918       -16.9505
   7   2.0000      -0.596927       -16.2432
   8   2.0000      -0.549572       -14.9546
   9   2.0000      -0.530296       -14.4301
  10   2.0000      -0.475289       -12.9333
  11   2.0000      -0.474901       -12.9227
  12   2.0000      -0.466735       -12.7005
  13   0.0000       0.233174         6.3450
  14   0.0000       0.294997         8.0273
  15   0.0000       0.296898         8.0790
  16   0.0000       0.297035         8.0827
  17   0.0000       0.317062         8.6277

FINAL SINGLE POINT ENERGY      -118.262731978395

DIPOLE MOMENT
-------------
                                X             Y             Z
Electronic contribution:      0.26416       0.39163       0.00004
Nuclear contribution   :     -0.24997      -0.37071      -0.00004
                        -----------------------------------------
Total Dipole Moment    :      0.01419       0.02092       0.00000
                        -----------------------------------------
Magnitude (a.u.)       :      0.02528
Magnitude (Debye)      :      0.06426

Rotational constants in cm-1:     0.985616     0.281042     0.248876
Rotational constants in MHz : 29548.010991  8425.416736  7461.121935

                             ****ORCA TERMINATED NORMALLY****
TOTAL RUN TIME: 0 days 0 hours 3 minutes 21 seconds 456 msec
