                         Program Version 5.0.1 -  RELEASE  -
|  1> * xyz   0   1
|  2>    C    -5.467000     1.905000    -0.072000
|  3>    C    -3.959000     1.905000    -0.072000
|  4>    H    -5.856000     2.951000    -0.072000
|  5>    H    -5.860000     1.382000    -0.976000
|  6>    H    -5.860000     1.381000     0.833000
|  7>    C    -3.400000     0.505000    -0.072000
|  8>    H    -3.585000     2.457000    -0.974000
|  9>    H    -3.585000     2.457000     0.831000
| 10>    H    -2.283000     0.532000    -0.072000
| 11>    H    -3.739000    -0.054000     0.833000
| 12>    H    -3.739000    -0.054000    -0.977000
| 13>   *
| 14>
| 15>  %pal nprocs  12 end
| 16>  %maxcore  62
| 17>
| 18>
| 19>                          ****END OF INPUT****
|  1>   ! opt r2SCAN-3c nopop
|  2>   %base "propane_initial"
|  3>
|  4>                          ****END OF INPUT****
 Total Charge           Charge          ....    0
 Multiplicity           Mult            ....    1
 Number of Electrons    NEL             ....   26
Dispersion correction           -0.001709375
FINAL SINGLE POINT ENERGY      -119.089284597591
Dispersion correction            ... Starting D4
Dispersion correction           -0.001704767
FINAL SINGLE POINT ENERGY      -119.092105315228
Dispersion correction            ... Starting D4
Dispersion correction           -0.001703547
FINAL SINGLE POINT ENERGY      -119.092151431069
Dispersion correction            ... Starting D4
FINAL SINGLE POINT ENERGY      -119.092154372216
                    ***********************HURRAY********************
FINAL SINGLE POINT ENERGY      -119.092155110541
|  1>   ! opt freq B3LYP D4 def2-TZVP def2/J RIJCOSX PModel nopop
|  2>   %base "propane_opt"
|  3>
|  4>                          ****END OF INPUT****
FINAL SINGLE POINT ENERGY      -119.106297856892
FINAL SINGLE POINT ENERGY      -119.106343977002
Dispersion correction            ... Starting D4
Dispersion correction           -0.008247939
FINAL SINGLE POINT ENERGY      -119.106345523700
Dispersion correction            ... Starting D4
                    ***********************HURRAY********************
Dispersion correction           -0.008246513
FINAL SINGLE POINT ENERGY      -119.106346286855
Dispersion correction in the Hessian             ... Starting D4

VIBRATIONAL FREQUENCIES
-----------------------

Scaling factor for frequencies =  1.000000000  (already applied!)

   0:         0.00 cm**-1
   1:         0.00 cm**-1
   2:         0.00 cm**-1
   3:         0.00 cm**-1
   4:         0.00 cm**-1
   5:         0.00 cm**-1
   6:       219.84 cm**-1
   7:       269.76 cm**-1
   8:       370.19 cm**-1
   9:       754.28 cm**-1
  10:       873.38 cm**-1
  11:       913.70 cm**-1
  12:       934.37 cm**-1
  13:      1058.01 cm**-1
  14:      1178.72 cm**-1
  15:      1215.98 cm**-1
  16:      1317.91 cm**-1
  17:      1370.31 cm**-1
  18:      1404.46 cm**-1
  19:      1422.31 cm**-1
  20:      1489.50 cm**-1
  21:      1490.72 cm**-1
  22:      1496.00 cm**-1
  23:      1506.63 cm**-1
  24:      1512.45 cm**-1
  25:      3014.98 cm**-1
  26:      3018.82 cm**-1
  27:      3022.65 cm**-1
  28:      3034.05 cm**-1
  29:      3072.92 cm**-1
  30:      3084.31 cm**-1
  31:      3084.34 cm**-1
  32:      3087.03 cm**-1

IR SPECTRUM
-----------

 Mode   freq       eps      Int      T**2         TX        TY        TZ
       cm**-1   L/(mol*cm) km/mol    a.u.
----------------------------------------------------------------------------
  6:    219.84   0.000000    0.00  0.000000  ( 0.000000  0.000000 -0.000008)
  7:    269.76   0.000000    0.00  0.000000  (-0.000000  0.000000  0.000161)
  8:    370.19   0.000010    0.05  0.000009  ( 0.001614  0.002482  0.000000)
  9:    754.28   0.000549    2.77  0.000227  (-0.000000  0.000002 -0.015070)
 10:    873.38   0.000144    0.73  0.000052  (-0.004031 -0.005947 -0.000001)
 11:    913.70   0.000000    0.00  0.000000  (-0.000000 -0.000000  0.000028)
 12:    934.37   0.000252    1.27  0.000084  ( 0.007613 -0.005104 -0.000001)
 13:   1058.01   0.000195    0.98  0.000057  (-0.006282  0.004236  0.000001)
 14:   1178.72   0.000205    1.04  0.000054  ( 0.004131  0.006107  0.000001)
 15:   1215.98   0.000016    0.08  0.000004  (-0.000000  0.000000 -0.002034)
 16:   1317.91   0.000000    0.00  0.000000  ( 0.000000  0.000000  0.000040)
 17:   1370.31   0.000579    2.93  0.000132  ( 0.009526 -0.006414 -0.000001)
 18:   1404.46   0.000788    3.98  0.000175  ( 0.010942 -0.007444 -0.000001)
 19:   1422.31   0.000557    2.82  0.000122  ( 0.006183  0.009164  0.000001)
 20:   1489.50   0.000000    0.00  0.000000  (-0.000000  0.000000  0.000016)
 21:   1490.72   0.000003    0.01  0.000001  ( 0.000511  0.000593 -0.000000)
 22:   1496.00   0.000470    2.37  0.000098  (-0.008199  0.005546  0.000001)
 23:   1506.63   0.002860   14.45  0.000592  ( 0.000000 -0.000003  0.024337)
 24:   1512.45   0.001174    5.93  0.000242  ( 0.008733  0.012884  0.000002)
 25:   3014.98   0.003894   19.68  0.000403  ( 0.011090  0.016735  0.000002)
 26:   3018.82   0.007030   35.52  0.000727  (-0.022417  0.014971  0.000002)
 27:   3022.65   0.006120   30.93  0.000632  (-0.014042 -0.020848 -0.000003)
 28:   3034.05   0.000764    3.86  0.000079  (-0.000000 -0.000002  0.008864)
 29:   3072.92   0.000001    0.01  0.000000  (-0.000000  0.000001 -0.000323)
 30:   3084.31   0.006374   32.21  0.000645  ( 0.022140 -0.012435  0.000275)
 31:   3084.34   0.019696   99.54  0.001993  ( 0.000138 -0.000070 -0.044640)
 32:   3087.03   0.010420   52.66  0.001053  (-0.016805 -0.027766 -0.000007)

--------------------------
THERMOCHEMISTRY AT 298.15K
--------------------------

Temperature         ... 298.15 K
Pressure            ... 1.00 atm
Total Mass          ... 44.10 AMU

Throughout the following assumptions are being made:
  (1) The electronic state is orbitally nondegenerate
  (2) There are no thermally accessible electronically excited states
  (3) Hindered rotations indicated by low frequency modes are not
      treated as such but are treated as vibrations and this may
      cause some error
  (4) All equations used are the standard statistical mechanics
      equations for an ideal gas
  (5) All vibrations are strictly harmonic

freq.     219.84  E(vib)   ...       0.33
freq.     269.76  E(vib)   ...       0.29
freq.     370.19  E(vib)   ...       0.21
freq.     754.28  E(vib)   ...       0.06
freq.     873.38  E(vib)   ...       0.04
freq.     913.70  E(vib)   ...       0.03
freq.     934.37  E(vib)   ...       0.03
freq.    1058.01  E(vib)   ...       0.02
freq.    1178.72  E(vib)   ...       0.01
freq.    1215.98  E(vib)   ...       0.01
freq.    1317.91  E(vib)   ...       0.01
freq.    1370.31  E(vib)   ...       0.01
freq.    1404.46  E(vib)   ...       0.00
freq.    1422.31  E(vib)   ...       0.00
freq.    1489.50  E(vib)   ...       0.00
freq.    1490.72  E(vib)   ...       0.00
freq.    1496.00  E(vib)   ...       0.00
freq.    1506.63  E(vib)   ...       0.00
freq.    1512.45  E(vib)   ...       0.00
freq.    3014.98  E(vib)   ...       0.00
freq.    3018.82  E(vib)   ...       0.00
freq.    3022.65  E(vib)   ...       0.00
freq.    3034.05  E(vib)   ...       0.00
freq.    3072.92  E(vib)   ...       0.00
freq.    3084.31  E(vib)   ...       0.00
freq.    3084.34  E(vib)   ...       0.00
freq.    3087.03  E(vib)   ...       0.00

------------
INNER ENERGY
------------

The inner energy is: U= E(el) + E(ZPE) + E(vib) + E(rot) + E(trans)
    E(el)   - is the total energy from the electronic structure calculation
              = E(kin-el) + E(nuc-el) + E(el-el) + E(nuc-nuc)
    E(ZPE)  - the the zero temperature vibrational energy from the frequency calculation
    E(vib)  - the the finite temperature correction to E(ZPE) due to population
              of excited vibrational states
    E(rot)  - is the rotational thermal energy
    E(trans)- is the translational thermal energy

Summary of contributions to the inner energy U:
Electronic energy                ...   -119.10634629 Eh
Zero point energy                ...      0.10301334 Eh      64.64 kcal/mol
Thermal vibrational correction   ...      0.00170123 Eh       1.07 kcal/mol
Thermal rotational correction    ...      0.00141627 Eh       0.89 kcal/mol
Thermal translational correction ...      0.00141627 Eh       0.89 kcal/mol
-----------------------------------------------------------------------
Total thermal energy                   -118.99879917 Eh

Summary of corrections to the electronic energy:
(perhaps to be used in another calculation)
Total thermal correction                  0.00453377 Eh       2.84 kcal/mol
Non-thermal (ZPE) correction              0.10301334 Eh      64.64 kcal/mol
-----------------------------------------------------------------------
Total correction                          0.10754711 Eh      67.49 kcal/mol

--------
ENTHALPY
--------

The enthalpy is H = U + kB*T
                kB is Boltzmann's constant
Total free energy                 ...   -118.99879917 Eh
Thermal Enthalpy correction       ...      0.00094421 Eh       0.59 kcal/mol
-----------------------------------------------------------------------
Total Enthalpy                    ...   -118.99785496 Eh

Note: Rotational entropy computed according to Herzberg
Infrared and Raman Spectra, Chapter V,1, Van Nostrand Reinhold, 1945
Point Group:  Cs, Symmetry Number:   1
Rotational constants in cm-1:     0.985689     0.281040     0.248882

Vibrational entropy computed according to the QRRHO of S. Grimme
Chem.Eur.J. 2012 18 9955

-------
ENTROPY
-------

The entropy contributions are T*S = T*(S(el)+S(vib)+S(rot)+S(trans))
     S(el)   - electronic entropy
     S(vib)  - vibrational entropy
     S(rot)  - rotational entropy
     S(trans)- translational entropy
The entropies will be listed as multiplied by the temperature to get
units of energy

Electronic entropy                ...      0.00000000 Eh      0.00 kcal/mol
Vibrational entropy               ...      0.00266254 Eh      1.67 kcal/mol
Rotational entropy                ...      0.01077339 Eh      6.76 kcal/mol
Translational entropy             ...      0.01771163 Eh     11.11 kcal/mol
-----------------------------------------------------------------------
Final entropy term                ...      0.03114756 Eh     19.55 kcal/mol

In case the symmetry of your molecule has not been determined correctly
or in case you have a reason to use a different symmetry number we print
out the resulting rotational entropy values for sn=1,12 :
 --------------------------------------------------------
|  sn= 1 | S(rot)=       0.01077339 Eh      6.76 kcal/mol|
|  sn= 2 | S(rot)=       0.01011894 Eh      6.35 kcal/mol|
|  sn= 3 | S(rot)=       0.00973610 Eh      6.11 kcal/mol|
|  sn= 4 | S(rot)=       0.00946448 Eh      5.94 kcal/mol|
|  sn= 5 | S(rot)=       0.00925379 Eh      5.81 kcal/mol|
|  sn= 6 | S(rot)=       0.00908165 Eh      5.70 kcal/mol|
|  sn= 7 | S(rot)=       0.00893610 Eh      5.61 kcal/mol|
|  sn= 8 | S(rot)=       0.00881002 Eh      5.53 kcal/mol|
|  sn= 9 | S(rot)=       0.00869881 Eh      5.46 kcal/mol|
|  sn=10 | S(rot)=       0.00859934 Eh      5.40 kcal/mol|
|  sn=11 | S(rot)=       0.00850935 Eh      5.34 kcal/mol|
|  sn=12 | S(rot)=       0.00842719 Eh      5.29 kcal/mol|
 --------------------------------------------------------

-------------------
GIBBS FREE ENERGY
-------------------

The Gibbs free energy is G = H - T*S

Total enthalpy                    ...   -118.99785496 Eh
Total entropy correction          ...     -0.03114756 Eh    -19.55 kcal/mol
-----------------------------------------------------------------------
Final Gibbs free energy         ...   -119.02900252 Eh

For completeness - the Gibbs free energy minus the electronic energy
G-E(el)                           ...      0.07734376 Eh     48.53 kcal/mol

|  1>   ! B3LYP D4 def2-TZVP def2/J RIJCOSX nbo nopop
|  2>   %base "propane_nbo"
|  3>   %nbo NBOKEYLIST = "$nbo BNDIDX $end" end
|  4>
|  5>                          ****END OF INPUT****
Dispersion correction           -0.008246513
FINAL SINGLE POINT ENERGY      -119.106346287567
|  1>   ! HF 6-31G* chelpg Hirshfeld nopop
|  2>   %base "propane_charge"
|  3>
|  4>                          ****END OF INPUT****

CARTESIAN COORDINATES (ANGSTROEM)
---------------------------------
  C     -5.484567    1.920696   -0.071749
  C     -3.957323    1.907735   -0.071756
  H     -5.878234    2.939227   -0.071624
  H     -5.881010    1.410004   -0.953382
  H     -5.881001    1.409792    0.809766
  C     -3.378241    0.494359   -0.071934
  H     -3.588252    2.452631   -0.946328
  H     -3.588248    2.452412    0.802949
  H     -2.286314    0.507202   -0.071963
  H     -3.704880   -0.063631    0.809636
  H     -3.704929   -0.063427   -0.953616

 Multiplicity           Mult            ....    1
 Number of Electrons    NEL             ....   26
 Basis Dimension        Dim             ....   58

ORBITAL ENERGIES
----------------

  NO   OCC          E(Eh)            E(eV)
   0   2.0000     -11.214988      -305.1754
   1   2.0000     -11.206708      -304.9500
   2   2.0000     -11.206669      -304.9490
   3   2.0000      -1.052165       -28.6309
   4   2.0000      -0.924740       -25.1635
   5   2.0000      -0.799486       -21.7551
   6   2.0000      -0.622938       -16.9510
   7   2.0000      -0.596928       -16.2432
   8   2.0000      -0.549582       -14.9549
   9   2.0000      -0.530312       -14.4305
  10   2.0000      -0.475283       -12.9331
  11   2.0000      -0.474886       -12.9223
  12   2.0000      -0.466742       -12.7007
  13   0.0000       0.233169         6.3449
  14   0.0000       0.295001         8.0274
  15   0.0000       0.296902         8.0791
  16   0.0000       0.297039         8.0828
  17   0.0000       0.317073         8.6280

FINAL SINGLE POINT ENERGY      -118.262732822889

DIPOLE MOMENT
-------------
                                X             Y             Z
Electronic contribution:      0.26400       0.39138       0.00005
Nuclear contribution   :     -0.24980      -0.37045      -0.00004
                        -----------------------------------------
Total Dipole Moment    :      0.01420       0.02093       0.00000
                        -----------------------------------------
Magnitude (a.u.)       :      0.02530
Magnitude (Debye)      :      0.06430

Rotational constants in cm-1:     0.985689     0.281040     0.248882
Rotational constants in MHz : 29550.202525  8425.369674  7461.290181

                             ****ORCA TERMINATED NORMALLY****
TOTAL RUN TIME: 0 days 0 hours 1 minutes 27 seconds 762 msec
