                         Program Version 5.0.1 -  RELEASE  -
|  1> * xyz   0   1
|  2>    C    -5.467000     1.905000    -0.072000
|  3>    C    -3.959000     1.905000    -0.072000
|  4>    H    -5.856000     2.951000    -0.072000
|  5>    H    -5.860000     1.382000    -0.976000
|  6>    H    -5.860000     1.381000     0.833000
|  7>    C    -3.400000     0.505000    -0.072000
|  8>    H    -3.585000     2.457000    -0.974000
|  9>    H    -3.585000     2.457000     0.831000
| 10>    H    -2.283000     0.532000    -0.072000
| 11>    H    -3.739000    -0.054000     0.833000
| 12>    H    -3.739000    -0.054000    -0.977000
| 13>   *
| 14>
| 15>  %pal nprocs  12 end
| 16>  %maxcore  1000
| 17>
| 18>
| 19>                          ****END OF INPUT****
|  1>   ! opt freq PBE0 D3 6-31+G* nopop nori
|  2>   %base "propane_opt"
|  3>
|  4>                          ****END OF INPUT****
 Total Charge           Charge          ....    0
 Multiplicity           Mult            ....    1
 Number of Electrons    NEL             ....   26
Dispersion correction           -0.004979345
FINAL SINGLE POINT ENERGY      -118.988877970347
Dispersion correction            ... done
Dispersion correction           -0.004966826
FINAL SINGLE POINT ENERGY      -118.991525897394
Dispersion correction            ... done
Dispersion correction           -0.004961964
FINAL SINGLE POINT ENERGY      -118.991553628672
Dispersion correction            ... done
Dispersion correction           -0.004961187
FINAL SINGLE POINT ENERGY      -118.991556718806
Dispersion correction            ... done
                    ***********************HURRAY********************
Dispersion correction           -0.004961508
FINAL SINGLE POINT ENERGY      -118.991557513397
Dispersion correction in the Hessian             ... done   (      0.2 sec)

VIBRATIONAL FREQUENCIES
-----------------------

Scaling factor for frequencies =  1.000000000  (already applied!)

   0:         0.00 cm**-1
   1:         0.00 cm**-1
   2:         0.00 cm**-1
   3:         0.00 cm**-1
   4:         0.00 cm**-1
   5:         0.00 cm**-1
   6:       222.94 cm**-1
   7:       277.99 cm**-1
   8:       369.46 cm**-1
   9:       754.71 cm**-1
  10:       898.87 cm**-1
  11:       915.91 cm**-1
  12:       937.77 cm**-1
  13:      1091.22 cm**-1
  14:      1188.91 cm**-1
  15:      1221.27 cm**-1
  16:      1326.14 cm**-1
  17:      1377.27 cm**-1
  18:      1425.95 cm**-1
  19:      1439.40 cm**-1
  20:      1510.13 cm**-1
  21:      1511.57 cm**-1
  22:      1517.51 cm**-1
  23:      1529.12 cm**-1
  24:      1532.67 cm**-1
  25:      3055.01 cm**-1
  26:      3056.95 cm**-1
  27:      3058.32 cm**-1
  28:      3087.43 cm**-1
  29:      3125.95 cm**-1
  30:      3135.69 cm**-1
  31:      3135.83 cm**-1
  32:      3137.84 cm**-1

IR SPECTRUM
-----------

 Mode   freq       eps      Int      T**2         TX        TY        TZ
       cm**-1   L/(mol*cm) km/mol    a.u.
----------------------------------------------------------------------------
  6:    222.94   0.000000    0.00  0.000000  ( 0.000001 -0.000000  0.000009)
  7:    277.99   0.000000    0.00  0.000000  (-0.000000  0.000000  0.000006)
  8:    369.46   0.000010    0.05  0.000008  ( 0.001614  0.002403  0.000000)
  9:    754.71   0.000740    3.74  0.000306  (-0.000000  0.000002 -0.017486)
 10:    898.87   0.000216    1.09  0.000075  (-0.004875 -0.007150 -0.000001)
 11:    915.91   0.000000    0.00  0.000000  (-0.000000 -0.000001  0.000024)
 12:    937.77   0.000555    2.80  0.000185  ( 0.011286 -0.007562 -0.000001)
 13:   1091.22   0.000120    0.61  0.000034  (-0.004856  0.003294  0.000000)
 14:   1188.91   0.000237    1.20  0.000062  ( 0.004420  0.006525  0.000001)
 15:   1221.27   0.000032    0.16  0.000008  ( 0.000000  0.000001 -0.002855)
 16:   1326.14   0.000000    0.00  0.000000  ( 0.000000  0.000000  0.000040)
 17:   1377.27   0.000231    1.17  0.000052  (-0.006006  0.004029  0.000000)
 18:   1425.95   0.001765    8.92  0.000386  ( 0.016271 -0.011025 -0.000002)
 19:   1439.40   0.000988    4.99  0.000214  ( 0.008196  0.012126  0.000001)
 20:   1510.13   0.000000    0.00  0.000000  ( 0.000000  0.000000  0.000052)
 21:   1511.57   0.000001    0.00  0.000000  (-0.000239 -0.000378 -0.000000)
 22:   1517.51   0.000674    3.41  0.000139  (-0.009748  0.006608  0.000001)
 23:   1529.12   0.003836   19.39  0.000783  ( 0.000000 -0.000004  0.027979)
 24:   1532.67   0.001603    8.10  0.000326  ( 0.010124  0.014962  0.000003)
 25:   3055.01   0.008128   41.08  0.000830  ( 0.023125 -0.017191 -0.000002)
 26:   3056.95   0.007881   39.83  0.000805  ( 0.016409  0.023136  0.000005)
 27:   3058.32   0.002736   13.83  0.000279  (-0.010217 -0.013220 -0.000000)
 28:   3087.43   0.000890    4.50  0.000090  ( 0.000002  0.000003 -0.009484)
 29:   3125.95   0.000002    0.01  0.000000  (-0.000003  0.000005  0.000488)
 30:   3135.69   0.018474   93.36  0.001839  (-0.000123  0.000091 -0.042878)
 31:   3135.83   0.005619   28.40  0.000559  ( 0.021136 -0.010601 -0.000272)
 32:   3137.84   0.009755   49.30  0.000970  (-0.015509 -0.027011 -0.000033)

--------------------------
THERMOCHEMISTRY AT 298.15K
--------------------------

Temperature         ... 298.15 K
Pressure            ... 1.00 atm
Total Mass          ... 44.10 AMU

Throughout the following assumptions are being made:
  (1) The electronic state is orbitally nondegenerate
  (2) There are no thermally accessible electronically excited states
  (3) Hindered rotations indicated by low frequency modes are not
      treated as such but are treated as vibrations and this may
      cause some error
  (4) All equations used are the standard statistical mechanics
      equations for an ideal gas
  (5) All vibrations are strictly harmonic

freq.     222.94  E(vib)   ...       0.33
freq.     277.99  E(vib)   ...       0.28
freq.     369.46  E(vib)   ...       0.21
freq.     754.71  E(vib)   ...       0.06
freq.     898.87  E(vib)   ...       0.03
freq.     915.91  E(vib)   ...       0.03
freq.     937.77  E(vib)   ...       0.03
freq.    1091.22  E(vib)   ...       0.02
freq.    1188.91  E(vib)   ...       0.01
freq.    1221.27  E(vib)   ...       0.01
freq.    1326.14  E(vib)   ...       0.01
freq.    1377.27  E(vib)   ...       0.01
freq.    1425.95  E(vib)   ...       0.00
freq.    1439.40  E(vib)   ...       0.00
freq.    1510.13  E(vib)   ...       0.00
freq.    1511.57  E(vib)   ...       0.00
freq.    1517.51  E(vib)   ...       0.00
freq.    1529.12  E(vib)   ...       0.00
freq.    1532.67  E(vib)   ...       0.00
freq.    3055.01  E(vib)   ...       0.00
freq.    3056.95  E(vib)   ...       0.00
freq.    3058.32  E(vib)   ...       0.00
freq.    3087.43  E(vib)   ...       0.00
freq.    3125.95  E(vib)   ...       0.00
freq.    3135.69  E(vib)   ...       0.00
freq.    3135.83  E(vib)   ...       0.00
freq.    3137.84  E(vib)   ...       0.00

------------
INNER ENERGY
------------

The inner energy is: U= E(el) + E(ZPE) + E(vib) + E(rot) + E(trans)
    E(el)   - is the total energy from the electronic structure calculation
              = E(kin-el) + E(nuc-el) + E(el-el) + E(nuc-nuc)
    E(ZPE)  - the the zero temperature vibrational energy from the frequency calculation
    E(vib)  - the the finite temperature correction to E(ZPE) due to population
              of excited vibrational states
    E(rot)  - is the rotational thermal energy
    E(trans)- is the translational thermal energy

Summary of contributions to the inner energy U:
Electronic energy                ...   -118.99155751 Eh
Zero point energy                ...      0.10443533 Eh      65.53 kcal/mol
Thermal vibrational correction   ...      0.00167137 Eh       1.05 kcal/mol
Thermal rotational correction    ...      0.00141627 Eh       0.89 kcal/mol
Thermal translational correction ...      0.00141627 Eh       0.89 kcal/mol
-----------------------------------------------------------------------
Total thermal energy                   -118.88261827 Eh

Summary of corrections to the electronic energy:
(perhaps to be used in another calculation)
Total thermal correction                  0.00450391 Eh       2.83 kcal/mol
Non-thermal (ZPE) correction              0.10443533 Eh      65.53 kcal/mol
-----------------------------------------------------------------------
Total correction                          0.10893924 Eh      68.36 kcal/mol

--------
ENTHALPY
--------

The enthalpy is H = U + kB*T
                kB is Boltzmann's constant
Total free energy                 ...   -118.88261827 Eh
Thermal Enthalpy correction       ...      0.00094421 Eh       0.59 kcal/mol
-----------------------------------------------------------------------
Total Enthalpy                    ...   -118.88167406 Eh

Note: Rotational entropy computed according to Herzberg
Infrared and Raman Spectra, Chapter V,1, Van Nostrand Reinhold, 1945
Point Group:  Cs, Symmetry Number:   1
Rotational constants in cm-1:     0.981604     0.282104     0.249698

Vibrational entropy computed according to the QRRHO of S. Grimme
Chem.Eur.J. 2012 18 9955

-------
ENTROPY
-------

The entropy contributions are T*S = T*(S(el)+S(vib)+S(rot)+S(trans))
     S(el)   - electronic entropy
     S(vib)  - vibrational entropy
     S(rot)  - rotational entropy
     S(trans)- translational entropy
The entropies will be listed as multiplied by the temperature to get
units of energy

Electronic entropy                ...      0.00000000 Eh      0.00 kcal/mol
Vibrational entropy               ...      0.00260863 Eh      1.64 kcal/mol
Rotational entropy                ...      0.01077202 Eh      6.76 kcal/mol
Translational entropy             ...      0.01771163 Eh     11.11 kcal/mol
-----------------------------------------------------------------------
Final entropy term                ...      0.03109228 Eh     19.51 kcal/mol

In case the symmetry of your molecule has not been determined correctly
or in case you have a reason to use a different symmetry number we print
out the resulting rotational entropy values for sn=1,12 :
 --------------------------------------------------------
|  sn= 1 | S(rot)=       0.01077202 Eh      6.76 kcal/mol|
|  sn= 2 | S(rot)=       0.01011757 Eh      6.35 kcal/mol|
|  sn= 3 | S(rot)=       0.00973473 Eh      6.11 kcal/mol|
|  sn= 4 | S(rot)=       0.00946311 Eh      5.94 kcal/mol|
|  sn= 5 | S(rot)=       0.00925242 Eh      5.81 kcal/mol|
|  sn= 6 | S(rot)=       0.00908028 Eh      5.70 kcal/mol|
|  sn= 7 | S(rot)=       0.00893473 Eh      5.61 kcal/mol|
|  sn= 8 | S(rot)=       0.00880865 Eh      5.53 kcal/mol|
|  sn= 9 | S(rot)=       0.00869745 Eh      5.46 kcal/mol|
|  sn=10 | S(rot)=       0.00859797 Eh      5.40 kcal/mol|
|  sn=11 | S(rot)=       0.00850798 Eh      5.34 kcal/mol|
|  sn=12 | S(rot)=       0.00842582 Eh      5.29 kcal/mol|
 --------------------------------------------------------

-------------------
GIBBS FREE ENERGY
-------------------

The Gibbs free energy is G = H - T*S

Total enthalpy                    ...   -118.88167406 Eh
Total entropy correction          ...     -0.03109228 Eh    -19.51 kcal/mol
-----------------------------------------------------------------------
Final Gibbs free energy         ...   -118.91276634 Eh

For completeness - the Gibbs free energy minus the electronic energy
G-E(el)                           ...      0.07879117 Eh     49.44 kcal/mol

|  1>   ! PBE0 D3 6-31+G* nbo nopop nori
|  2>   %base "propane_nbo"
|  3>   %nbo NBOKEYLIST = "$nbo BNDIDX $end" end
|  4>
|  5>                          ****END OF INPUT****
Dispersion correction           -0.004961508
FINAL SINGLE POINT ENERGY      -118.991557512983
|  1>   ! PBE0 D3 6-31+G* chelpg Hirshfeld nopop nori
|  2>   %base "propane_charge"
|  3>
|  4>                          ****END OF INPUT****

CARTESIAN COORDINATES (ANGSTROEM)
---------------------------------
  C     -5.481297    1.919020   -0.071755
  C     -3.956837    1.908467   -0.071755
  H     -5.879064    2.940401   -0.071630
  H     -5.878423    1.405584   -0.956431
  H     -5.878411    1.405375    0.812807
  C     -3.380958    0.496842   -0.071937
  H     -3.586554    2.455133   -0.949619
  H     -3.586577    2.454898    0.806266
  H     -2.284885    0.506844   -0.071988
  H     -3.709955   -0.062874    0.812641
  H     -3.710039   -0.062690   -0.956599

 Multiplicity           Mult            ....    1
 Number of Electrons    NEL             ....   26
 Basis Dimension        Dim             ....   70

ORBITAL ENERGIES
----------------

  NO   OCC          E(Eh)            E(eV)
   0   2.0000     -10.222492      -278.1682
   1   2.0000     -10.212233      -277.8890
   2   2.0000     -10.212204      -277.8882
   3   2.0000      -0.804202       -21.8834
   4   2.0000      -0.700128       -19.0515
   5   2.0000      -0.600917       -16.3518
   6   2.0000      -0.470205       -12.7949
   7   2.0000      -0.449618       -12.2347
   8   2.0000      -0.409743       -11.1497
   9   2.0000      -0.390862       -10.6359
  10   2.0000      -0.347988        -9.4692
  11   2.0000      -0.346628        -9.4322
  12   2.0000      -0.336046        -9.1443
  13   0.0000       0.027005         0.7349
  14   0.0000       0.041681         1.1342
  15   0.0000       0.045983         1.2513
  16   0.0000       0.055748         1.5170
  17   0.0000       0.080510         2.1908

Dispersion correction           -0.004961508
FINAL SINGLE POINT ENERGY      -118.991557512984

DIPOLE MOMENT
-------------
                                X             Y             Z
Electronic contribution:      0.27176       0.40282       0.00003
Nuclear contribution   :     -0.25272      -0.37478      -0.00002
                        -----------------------------------------
Total Dipole Moment    :      0.01903       0.02804       0.00001
                        -----------------------------------------
Magnitude (a.u.)       :      0.03389
Magnitude (Debye)      :      0.08614

Rotational constants in cm-1:     0.981604     0.282104     0.249698
Rotational constants in MHz : 29427.757040  8457.265811  7485.759697

                             ****ORCA TERMINATED NORMALLY****
TOTAL RUN TIME: 0 days 0 hours 0 minutes 32 seconds 82 msec
