 Gaussian 16, Revision A.03,
 Gaussian 16:  ES64L-G16RevA.03 25-Dec-2016

 ----------------------------------------------------------------------
 #Opt=Modredundant PBEPBE EmpiricalDispersion=GD3BJ 6-31+G(D) pop=(CM5,
  ESP)
 ----------------------------------------------------------------------

 ------------------------------------------
 CC_H8C3_d91b46644317dee9c2b868166c66a18c~1
 ------------------------------------------
 Symbolic Z-matrix:
 Charge =  0 Multiplicity = 1

 SCF Done:  E(RPBE-PBE) =  -118.965911999     A.U. after   10 cycles
 Optimization completed.
    -- Stationary point found.
 SCF Done:  E(RPBE-PBE) =  -118.962639005     A.U. after    9 cycles
 SCF Done:  E(RPBE-PBE) =  -118.965025928     A.U. after    9 cycles
 SCF Done:  E(RPBE-PBE) =  -118.965257259     A.U. after    8 cycles
 SCF Done:  E(RPBE-PBE) =  -118.965260640     A.U. after    7 cycles
 Optimization completed.
 SCF Done:  E(RPBE-PBE) =  -118.960766141     A.U. after    9 cycles
 SCF Done:  E(RPBE-PBE) =  -118.963429175     A.U. after    9 cycles
 SCF Done:  E(RPBE-PBE) =  -118.963624942     A.U. after    8 cycles
 SCF Done:  E(RPBE-PBE) =  -118.963626343     A.U. after    7 cycles
 SCF Done:  E(RPBE-PBE) =  -118.958583261     A.U. after   10 cycles
 SCF Done:  E(RPBE-PBE) =  -118.961891403     A.U. after    9 cycles
 SCF Done:  E(RPBE-PBE) =  -118.961892529     A.U. after    7 cycles
 SCF Done:  E(RPBE-PBE) =  -118.960198402     A.U. after    9 cycles
 SCF Done:  E(RPBE-PBE) =  -118.963404537     A.U. after    9 cycles
 SCF Done:  E(RPBE-PBE) =  -118.963626075     A.U. after    9 cycles
 SCF Done:  E(RPBE-PBE) =  -118.963626441     A.U. after    6 cycles
    -- Stationary point found.
 SCF Done:  E(RPBE-PBE) =  -118.962306571     A.U. after    9 cycles
 SCF Done:  E(RPBE-PBE) =  -118.965126095     A.U. after    9 cycles
 SCF Done:  E(RPBE-PBE) =  -118.965260579     A.U. after    8 cycles
 SCF Done:  E(RPBE-PBE) =  -118.965260698     A.U. after    6 cycles
 Optimization completed.
    -- Stationary point found.

                         Standard orientation:
 ---------------------------------------------------------------------
 Center     Atomic      Atomic             Coordinates (Angstroms)
 Number     Number       Type             X           Y           Z
 ---------------------------------------------------------------------
      1          6           0        1.279123   -0.258779    0.003282
      2          6           0       -0.001154    0.589241    0.003583
      3          1           0        2.168261    0.341026   -0.259375
      4          1           0        1.454467   -0.734193    0.984811
      5          1           0        1.207904   -1.068411   -0.747245
      6          6           0       -1.277615   -0.261446   -0.000265
      7          1           0       -0.001399    1.266783    0.878523
      8          1           0       -0.005544    1.243795   -0.889282
      9          1           0       -2.186632    0.365611    0.013993
     10          1           0       -1.322158   -0.899759   -0.901508
     11          1           0       -1.317023   -0.928947    0.880487
 ---------------------------------------------------------------------

 The electronic state is 1-A.
 Alpha  occ. eigenvalues --   -9.89875  -9.88957  -9.88950  -0.70459  -0.61103
 Alpha  occ. eigenvalues --   -0.52201  -0.40493  -0.38655  -0.35021  -0.33384
 Alpha  occ. eigenvalues --   -0.29475  -0.29330  -0.28288
 Alpha virt. eigenvalues --    0.00265   0.02047   0.02447   0.03309   0.05791
 Alpha virt. eigenvalues --    0.06739   0.07357   0.07468   0.08299   0.10304
 Alpha virt. eigenvalues --    0.11046   0.13767   0.16493   0.16944   0.17526

 Mulliken charges:
               1
     1  C   -0.691562
     2  C   -0.328547
     3  H    0.213960
     4  H    0.218389
     5  H    0.212131
     6  C   -0.695638
     7  H    0.213817
     8  H    0.212691
     9  H    0.213571
    10  H    0.215337
    11  H    0.215850
 Sum of Mulliken charges =  -0.00000

 Dipole moment (field-independent basis, Debye):
    X=              0.0022    Y=              0.0885    Z=             -0.0120  Tot=              0.0894
 Quadrupole moment (field-independent basis, Debye-Ang):
   XX=            -22.6308   YY=            -22.2764   ZZ=            -21.7340
   XY=             -0.0141   XZ=             -0.0299   YZ=             -0.0160

 ESP charges:
               1
     1  C   -0.326574
     2  C    0.310485
     3  H    0.065171
     4  H    0.075722
     5  H    0.074041
     6  C   -0.290637
     7  H   -0.048639
     8  H   -0.046403
     9  H    0.053911
    10  H    0.067640
    11  H    0.065282
 Sum of ESP charges =  -0.00000

 Normal termination of Gaussian 16 at Thu Nov  4 17:55:51 2021.
