 Gaussian 16, Revision A.03,
 Gaussian 16:  ES64L-G16RevA.03 25-Dec-2016

 ----------------------------------------------------------------------
 #Opt Freq PBEPBE EmpiricalDispersion=GD3BJ 6-31+G(D) pop=(CM5, ESP, NB
 OREAD)
 ----------------------------------------------------------------------

 ---
 DMF
 ---
 Symbolic Z-matrix:
 Charge =  0 Multiplicity = 1

 SCF Done:  E(RPBE-PBE) =  -248.222637086     A.U. after   13 cycles
 SCF Done:  E(RPBE-PBE) =  -248.224070779     A.U. after   10 cycles
 SCF Done:  E(RPBE-PBE) =  -248.224082154     A.U. after   10 cycles
 SCF Done:  E(RPBE-PBE) =  -248.224184735     A.U. after   10 cycles
 SCF Done:  E(RPBE-PBE) =  -248.224483881     A.U. after   11 cycles
 SCF Done:  E(RPBE-PBE) =  -248.224812520     A.U. after   11 cycles
 SCF Done:  E(RPBE-PBE) =  -248.225067875     A.U. after   10 cycles
 SCF Done:  E(RPBE-PBE) =  -248.225611041     A.U. after   11 cycles
 SCF Done:  E(RPBE-PBE) =  -248.225728349     A.U. after   10 cycles
 SCF Done:  E(RPBE-PBE) =  -248.225731930     A.U. after   10 cycles
 SCF Done:  E(RPBE-PBE) =  -248.225771825     A.U. after    9 cycles
 SCF Done:  E(RPBE-PBE) =  -248.225781961     A.U. after    9 cycles
 SCF Done:  E(RPBE-PBE) =  -248.225789645     A.U. after    9 cycles
 SCF Done:  E(RPBE-PBE) =  -248.225791585     A.U. after    8 cycles
 SCF Done:  E(RPBE-PBE) =  -248.225791873     A.U. after    8 cycles
 Optimization completed.
    -- Stationary point found.

 ESP charges:
               1
     1  O   -0.486396
     2  N    0.089563
     3  C   -0.275566
     4  C   -0.404890
     5  C    0.275457
     6  H    0.103714
     7  H    0.103552
     8  H    0.137960
     9  H    0.139870
    10  H    0.132467
    11  H    0.140017
    12  H    0.044253
 Sum of ESP charges =  -0.00000

 1\1\GINC-DIDO\FOpt\RPBEPBE\6-31+G(d)\C3H7N1O1\GRTE2001\13-Jan-2022\0\\
 #Opt Freq PBEPBE EmpiricalDispersion=GD3BJ 6-31+G(D) pop=(CM5, ESP, NB
 OREAD)\\DMF\\0,1\O,1.8679480562,0.0517469615,0.2838296103\N,-0.4485843
 269,-0.0166984655,0.2332474485\C,-0.6130695508,1.4270009222,0.29282073
 91\C,-1.6473630329,-0.8330264696,0.1726068332\C,0.8052199111,-0.572186
 51,0.2347532779\H,-1.1884250326,1.7149741859,1.1923981806\H,-1.1505649
 854,1.7933902749,-0.6016708098\H,0.3871796539,1.8830778713,0.333742990
 4\H,-2.2810837436,-0.671744937,1.06531883\H,-1.3649720832,-1.897806320

 Normal termination of Gaussian 16 at Thu Jan 13 10:50:32 2022.

 ----------------------------------------------------------------------
 #N Geom=AllCheck Guess=TCheck SCRF=Check GenChk RPBEPBE/6-31+G(d) Freq
 ----------------------------------------------------------------------

 Structure from the checkpoint file:  "DMF_hessian.chk"
 ---
 DMF
 ---
 Charge =  0 Multiplicity = 1

                         Standard orientation:
 ---------------------------------------------------------------------
 Center     Atomic      Atomic             Coordinates (Angstroms)
 Number     Number       Type             X           Y           Z
 ---------------------------------------------------------------------
      1          8           0        1.966440   -0.093905   -0.000075
      2          7           0       -0.350459   -0.019438    0.000152
      3          6           0       -0.424287    1.432947    0.000013
      4          6           0       -1.598323   -0.761040   -0.000061
      5          6           0        0.866449   -0.651680    0.000059
      6          1           0       -0.959709    1.794125    0.897831
      7          1           0       -0.958883    1.794067   -0.898350
      8          1           0        0.602833    1.826906    0.000352
      9          1           0       -2.199946   -0.522833    0.897634
     10          1           0       -1.383100   -1.842217   -0.001355
     11          1           0       -2.200568   -0.520887   -0.896804
     12          1           0        0.758033   -1.763217    0.000158
 ---------------------------------------------------------------------

 SCF Done:  E(RPBE-PBE) =  -248.225791873     A.U. after    1 cycles

 The electronic state is 1-A.
 Alpha  occ. eigenvalues --  -18.75136 -14.05675  -9.99266  -9.95120  -9.93796
 Alpha  occ. eigenvalues --   -0.94542  -0.86667  -0.67296  -0.64300  -0.51853
 Alpha  occ. eigenvalues --   -0.46882  -0.43489  -0.42289  -0.37268  -0.37037
 Alpha  occ. eigenvalues --   -0.35783  -0.34752  -0.33495  -0.21588  -0.21443
 Alpha virt. eigenvalues --   -0.02399  -0.01569   0.00992   0.01853   0.03037
 Alpha virt. eigenvalues --    0.03187   0.04548   0.06212   0.06548   0.07201
 Alpha virt. eigenvalues --    0.09276   0.10322   0.10786   0.12648   0.13914

 Mulliken charges:
               1
     1  O   -0.458940
     2  N   -0.004785
     3  C   -0.605123
     4  C   -0.582114
     5  C    0.133660
     6  H    0.218601
     7  H    0.218607
     8  H    0.264287
     9  H    0.225657
    10  H    0.215733
    11  H    0.225612
    12  H    0.148805
 Sum of Mulliken charges =   0.00000

 Dipole moment (field-independent basis, Debye):
    X=             -4.1753    Y=             -0.3244    Z=             -0.0002  Tot=              4.1879
 Quadrupole moment (field-independent basis, Debye-Ang):
   XX=            -37.7884   YY=            -28.1447   ZZ=            -31.7012
   XY=              0.0814   XZ=              0.0008   YZ=              0.0003

  Exact polarizability:  63.894  -1.170  51.523  -0.002  -0.003  36.875
 Approx polarizability: 114.884  -0.929  76.202  -0.007  -0.004  56.796

 Summary of Natural Population Analysis:

                                       Natural Population
                Natural  -----------------------------------------------
    Atom  No    Charge         Core      Valence    Rydberg      Total
 -----------------------------------------------------------------------
      O    1   -0.59968      1.99981     6.57795    0.02192     8.59968
      N    2   -0.48026      1.99943     5.46565    0.01518     7.48026
      C    3   -0.52249      1.99953     4.51099    0.01197     6.52249
      C    4   -0.50689      1.99954     4.49735    0.00999     6.50689
      C    5    0.46043      1.99949     3.50338    0.03670     5.53957
      H    6    0.24048      0.00000     0.75864    0.00088     0.75952
      H    7    0.24047      0.00000     0.75865    0.00088     0.75953
      H    8    0.28042      0.00000     0.71782    0.00176     0.71958
      H    9    0.24217      0.00000     0.75671    0.00112     0.75783
      H   10    0.25033      0.00000     0.74849    0.00117     0.74967
      H   11    0.24219      0.00000     0.75670    0.00112     0.75781
      H   12    0.15283      0.00000     0.84450    0.00267     0.84717
 =======================================================================
   * Total *    0.00000      9.99780    29.89684    0.10536    40.00000

                      1                      2                      3
                      A                      A                      A
 Frequencies --    113.7725               170.7001               235.1538
 Red. masses --      1.5143                 1.1774                 1.4400
 Frc consts  --      0.0115                 0.0202                 0.0469
 IR Inten    --      0.1276                 0.0857                 1.4207

                      4                      5                      6
                      A                      A                      A
 Frequencies --    307.3182               330.0129               385.3809
 Red. masses --      3.8639                 2.3538                 2.3778
 Frc consts  --      0.2150                 0.1510                 0.2081
 IR Inten    --     10.7699                14.3794                 1.7960

                      7                      8                      9
                      A                      A                      A
 Frequencies --    643.2776               862.6836               955.8082
 Red. masses --      5.1237                 3.8618                 1.5997
 Frc consts  --      1.2492                 1.6934                 0.8611
 IR Inten    --      6.6370                 0.9724                 0.7608

                     10                     11                     12
                      A                      A                      A
 Frequencies --   1053.8987              1071.7039              1096.8626
 Red. masses --      1.3438                 1.7601                 1.2253
 Frc consts  --      0.8794                 1.1910                 0.8686
 IR Inten    --      2.4353               104.1460                 0.0843

                     13                     14                     15
                      A                      A                      A
 Frequencies --   1143.6915              1253.3834              1377.1034
 Red. masses --      1.3748                 4.2093                 1.4223
 Frc consts  --      1.0595                 3.8961                 1.5892
 IR Inten    --      2.1655                25.1132                42.6110

                     16                     17                     18
                      A                      A                      A
 Frequencies --   1391.5495              1399.3176              1430.4849
 Red. masses --      1.9281                 1.2641                 1.1920
 Frc consts  --      2.1998                 1.4584                 1.4371
 IR Inten    --     30.7014                12.2029                 5.8430

                     19                     20                     21
                      A                      A                      A
 Frequencies --   1448.5159              1470.1290              1471.8890
 Red. masses --      1.0399                 1.0415                 1.0662
 Frc consts  --      1.2856                 1.3263                 1.3609
 IR Inten    --      3.9371                21.2649                15.9235

                     22                     23                     24
                      A                      A                      A
 Frequencies --   1508.8448              1720.3336              2886.8397
 Red. masses --      1.2029                 8.3274                 1.0841
 Frc consts  --      1.6135                14.5206                 5.3230
 IR Inten    --     20.2159               461.4995                99.9181

                     25                     26                     27
                      A                      A                      A
 Frequencies --   2956.3320              2966.1696              3007.4800
 Red. masses --      1.0347                 1.0361                 1.1042
 Frc consts  --      5.3281                 5.3710                 5.8844
 IR Inten    --     59.5089                63.4056                47.8470

                     28                     29                     30
                      A                      A                      A
 Frequencies --   3019.5073              3065.2469              3096.7445
 Red. masses --      1.1045                 1.0991                 1.0984
 Frc consts  --      5.9330                 6.0846                 6.2064
 IR Inten    --     16.8633                15.0465                 1.1235

 - Thermochemistry -
 -------------------
 Temperature   298.150 Kelvin.  Pressure   1.00000 Atm.
 Atom     1 has atomic number  8 and mass  15.99491

 Molecular mass:    73.05276 amu.
 Principal axes and moments of inertia in atomic units:
                           1         2         3
     Eigenvalues --   203.58368 437.84064 618.22411
           X            0.99986   0.01664   0.00001
           Y           -0.01664   0.99986  -0.00000
           Z           -0.00001   0.00000   1.00000
 This molecule is an asymmetric top.
 Rotational symmetry number  1.
 Rotational temperatures (Kelvin)      0.42545     0.19782     0.14010
 Rotational constants (GHZ):           8.86486     4.12191     2.91923
 Zero-point vibrational energy     262222.2 (Joules/Mol)
                                   62.67262 (Kcal/Mol)
 Warning -- explicit consideration of   6 degrees of freedom as
           vibrations may cause significant error
 Vibrational temperatures:    163.69   245.60   338.33   442.16   474.81
          (Kelvin)            554.48   925.53  1241.21  1375.19  1516.33
                             1541.94  1578.14  1645.52  1803.34  1981.34
                             2002.13  2013.31  2058.15  2084.09  2115.19
                             2117.72  2170.89  2475.18  4153.52  4253.50
                             4267.66  4327.09  4344.40  4410.21  4455.52

 Zero-point correction=                           0.099875 (Hartree/Particle)
 Thermal correction to Energy=                    0.106066
 Thermal correction to Enthalpy=                  0.107010
 Thermal correction to Gibbs Free Energy=         0.070663
 Sum of electronic and zero-point Energies=           -248.125917
 Sum of electronic and thermal Energies=              -248.119726
 Sum of electronic and thermal Enthalpies=            -248.118782
 Sum of electronic and thermal Free Energies=         -248.155129

                     E (Thermal)             CV                S
                      KCal/Mol        Cal/Mol-Kelvin    Cal/Mol-Kelvin
 Total                   66.557             20.380             76.499
 Electronic               0.000              0.000              0.000
 Translational            0.889              2.981             38.782
 Rotational               0.889              2.981             25.514
 Vibrational             64.780             14.418             12.203
 Vibration     1          0.607              1.938              3.204
 Vibration     2          0.626              1.879              2.428
 Vibration     3          0.655              1.787              1.839
 Vibration     4          0.697              1.660              1.377
 Vibration     5          0.713              1.616              1.260
 Vibration     6          0.754              1.501              1.018

                           ! Non-Optimized Parameters !

 1\1\GINC-DIDO\Freq\RPBEPBE\6-31+G(d)\C3H7N1O1\GRTE2001\13-Jan-2022\0\\
 #N Geom=AllCheck Guess=TCheck SCRF=Check GenChk RPBEPBE/6-31+G(d) Freq
 \\DMF\\0,1\O,1.8679480562,0.0517469615,0.2838296103\N,-0.4485843269,-0
 .0166984655,0.2332474485\C,-0.6130695508,1.4270009222,0.2928207391\C,-
 1.6473630329,-0.8330264696,0.1726068332\C,0.8052199111,-0.57218651,0.2
 347532779\H,-1.1884250326,1.7149741859,1.1923981806\H,-1.1505649854,1.
 7933902749,-0.6016708098\H,0.3871796539,1.8830778713,0.3337429904\H,-2
 .2810837436,-0.671744937,1.06531883\H,-1.3649720832,-1.8978063202,0.13

 Normal termination of Gaussian 16 at Thu Jan 13 10:50:58 2022.
