                         Program Version 5.0.2 -  RELEASE  -
|  1> * xyz   0   1
|  2>    O     1.781919     0.061167     0.617891
|  3>    N    -0.458507    -0.023540     0.222374
|  4>    C    -0.589011     1.423735     0.290771
|  5>    C    -1.641578    -0.835565     0.033520
|  6>    C     0.765790    -0.571854     0.409042
|  7>    H    -0.423534     1.788876     1.307544
|  8>    H    -1.590125     1.706637    -0.030049
|  9>    H     0.145753     1.900333    -0.358357
| 10>    H    -2.360255    -0.689310     0.845882
| 11>    H    -1.357275    -1.887450     0.015213
| 12>    H    -2.137503    -0.597303    -0.911673
| 13>    H     0.752325    -1.675728     0.353841
| 14>   *
| 15>
| 16>  %pal nprocs  12 end
| 17>  %maxcore  937
| 18>
| 19>
| 20>                          ****END OF INPUT****
|  1>   ! opt r2SCAN-3c nopop
|  2>   %base "DMF_initial"
|  3>
|  4>                          ****END OF INPUT****
 Total Charge           Charge          ....    0
 Multiplicity           Mult            ....    1
 Number of Electrons    NEL             ....   40
Dispersion correction           -0.002510916
FINAL SINGLE POINT ENERGY      -248.447619154416
Dispersion correction            ... Starting D4
Dispersion correction           -0.002507642
FINAL SINGLE POINT ENERGY      -248.447792418359
Dispersion correction            ... Starting D4
Dispersion correction           -0.002506970
FINAL SINGLE POINT ENERGY      -248.447813327053
Dispersion correction            ... Starting D4
FINAL SINGLE POINT ENERGY      -248.447858503597
FINAL SINGLE POINT ENERGY      -248.448052696686
FINAL SINGLE POINT ENERGY      -248.448258722890
FINAL SINGLE POINT ENERGY      -248.448524903945
FINAL SINGLE POINT ENERGY      -248.448804338045
FINAL SINGLE POINT ENERGY      -248.449032295493
FINAL SINGLE POINT ENERGY      -248.449143173306
FINAL SINGLE POINT ENERGY      -248.449357842802
FINAL SINGLE POINT ENERGY      -248.449362809616
                    ***********************HURRAY********************
FINAL SINGLE POINT ENERGY      -248.449364970650
|  1>   ! opt freq B3LYP D4 def2-TZVP def2/J RIJCOSX PModel nopop
|  2>   %base "DMF_opt"
|  3>
|  4>                          ****END OF INPUT****
FINAL SINGLE POINT ENERGY      -248.481146207334
FINAL SINGLE POINT ENERGY      -248.481305042652
FINAL SINGLE POINT ENERGY      -248.481307503910
Dispersion correction            ... Starting D4
Dispersion correction           -0.012108765
FINAL SINGLE POINT ENERGY      -248.481309186932
Dispersion correction            ... Starting D4
                    ***********************HURRAY********************
Dispersion correction           -0.012107757
FINAL SINGLE POINT ENERGY      -248.481309481290
Dispersion correction in the Hessian             ... Starting D4

VIBRATIONAL FREQUENCIES
-----------------------

Scaling factor for frequencies =  1.000000000  (already applied!)

   0:         0.00 cm**-1
   1:         0.00 cm**-1
   2:         0.00 cm**-1
   3:         0.00 cm**-1
   4:         0.00 cm**-1
   5:         0.00 cm**-1
   6:       114.20 cm**-1
   7:       170.63 cm**-1
   8:       234.89 cm**-1
   9:       321.72 cm**-1
  10:       337.95 cm**-1
  11:       395.96 cm**-1
  12:       660.97 cm**-1
  13:       873.23 cm**-1
  14:      1020.16 cm**-1
  15:      1081.04 cm**-1
  16:      1096.60 cm**-1
  17:      1129.38 cm**-1
  18:      1177.61 cm**-1
  19:      1277.77 cm**-1
  20:      1412.97 cm**-1
  21:      1431.32 cm**-1
  22:      1440.43 cm**-1
  23:      1469.82 cm**-1
  24:      1478.28 cm**-1
  25:      1499.44 cm**-1
  26:      1503.85 cm**-1
  27:      1540.13 cm**-1
  28:      1758.29 cm**-1
  29:      2935.63 cm**-1
  30:      3006.53 cm**-1
  31:      3015.82 cm**-1
  32:      3047.25 cm**-1
  33:      3057.77 cm**-1
  34:      3111.64 cm**-1
  35:      3147.86 cm**-1

IR SPECTRUM
-----------

 Mode   freq       eps      Int      T**2         TX        TY        TZ
       cm**-1   L/(mol*cm) km/mol    a.u.
----------------------------------------------------------------------------
  6:    114.20   0.000058    0.29  0.000157  ( 0.000444  0.000485 -0.012523)
  7:    170.63   0.000008    0.04  0.000015  (-0.000068 -0.000225  0.003814)
  8:    234.89   0.000198    1.00  0.000264  ( 0.000189  0.000783 -0.016216)
  9:    321.72   0.002290   11.57  0.002221  (-0.022475  0.041362  0.002264)
 10:    337.95   0.003175   16.05  0.002932  ( 0.000602  0.002956 -0.054066)
 11:    395.96   0.000321    1.62  0.000253  ( 0.010151  0.012230  0.000625)
 12:    660.97   0.001449    7.32  0.000684  (-0.026146 -0.000237 -0.000577)
 13:    873.23   0.000351    1.78  0.000126  (-0.011168  0.000860 -0.000269)
 14:   1020.16   0.000003    0.01  0.000001  ( 0.000076  0.000035 -0.000926)
 15:   1081.04   0.000821    4.15  0.000237  ( 0.008737  0.012653  0.000721)
 16:   1096.60   0.022666  114.55  0.006450  ( 0.077221 -0.022056  0.000799)
 17:   1129.38   0.000020    0.10  0.000005  (-0.000248  0.000039  0.002321)
 18:   1177.61   0.000521    2.63  0.000138  ( 0.000335  0.000395 -0.011735)
 19:   1277.77   0.006859   34.66  0.001675  ( 0.005954 -0.040465 -0.001540)
 20:   1412.97   0.016153   81.63  0.003567  (-0.054906  0.023511 -0.000243)
 21:   1431.32   0.003593   18.16  0.000783  (-0.019619  0.019955  0.000437)
 22:   1440.43   0.001236    6.24  0.000268  (-0.013865 -0.008650 -0.000794)
 23:   1469.82   0.001646    8.32  0.000349  ( 0.017985  0.005033  0.000823)
 24:   1478.28   0.000730    3.69  0.000154  (-0.000320 -0.000674  0.012391)
 25:   1499.44   0.003163   15.98  0.000658  (-0.000472 -0.000779  0.025639)
 26:   1503.85   0.002382   12.04  0.000494  ( 0.010678  0.019487  0.000700)
 27:   1540.13   0.004562   23.06  0.000924  ( 0.021709 -0.021282 -0.000452)
 28:   1758.29   0.092591  467.92  0.016433  (-0.127199 -0.015550 -0.003431)
 29:   2935.63   0.017415   88.01  0.001851  (-0.001865 -0.042947 -0.001810)
 30:   3006.53   0.009467   47.84  0.000983  (-0.024998 -0.018851 -0.001539)
 31:   3015.82   0.011651   58.88  0.001206  ( 0.029508 -0.018298 -0.000076)
 32:   3047.25   0.009530   48.16  0.000976  ( 0.000922  0.001440 -0.031193)
 33:   3057.77   0.004013   20.28  0.000410  ( 0.000460  0.000940 -0.020209)
 34:   3111.64   0.003165   16.00  0.000317  (-0.007033  0.016359  0.000603)
 35:   3147.86   0.000243    1.23  0.000024  (-0.001381 -0.004707 -0.000263)

--------------------------
THERMOCHEMISTRY AT 298.15K
--------------------------

Temperature         ... 298.15 K
Pressure            ... 1.00 atm
Total Mass          ... 73.09 AMU

Throughout the following assumptions are being made:
  (1) The electronic state is orbitally nondegenerate
  (2) There are no thermally accessible electronically excited states
  (3) Hindered rotations indicated by low frequency modes are not
      treated as such but are treated as vibrations and this may
      cause some error
  (4) All equations used are the standard statistical mechanics
      equations for an ideal gas
  (5) All vibrations are strictly harmonic

freq.     114.20  E(vib)   ...       0.44
freq.     170.63  E(vib)   ...       0.38
freq.     234.89  E(vib)   ...       0.32
freq.     321.72  E(vib)   ...       0.25
freq.     337.95  E(vib)   ...       0.24
freq.     395.96  E(vib)   ...       0.20
freq.     660.97  E(vib)   ...       0.08
freq.     873.23  E(vib)   ...       0.04
freq.    1020.16  E(vib)   ...       0.02
freq.    1081.04  E(vib)   ...       0.02
freq.    1096.60  E(vib)   ...       0.02
freq.    1129.38  E(vib)   ...       0.01
freq.    1177.61  E(vib)   ...       0.01
freq.    1277.77  E(vib)   ...       0.01
freq.    1412.97  E(vib)   ...       0.00
freq.    1431.32  E(vib)   ...       0.00
freq.    1440.43  E(vib)   ...       0.00
freq.    1469.82  E(vib)   ...       0.00
freq.    1478.28  E(vib)   ...       0.00
freq.    1499.44  E(vib)   ...       0.00
freq.    1503.85  E(vib)   ...       0.00
freq.    1540.13  E(vib)   ...       0.00
freq.    1758.29  E(vib)   ...       0.00
freq.    2935.63  E(vib)   ...       0.00
freq.    3006.53  E(vib)   ...       0.00
freq.    3015.82  E(vib)   ...       0.00
freq.    3047.25  E(vib)   ...       0.00
freq.    3057.77  E(vib)   ...       0.00
freq.    3111.64  E(vib)   ...       0.00
freq.    3147.86  E(vib)   ...       0.00

------------
INNER ENERGY
------------

The inner energy is: U= E(el) + E(ZPE) + E(vib) + E(rot) + E(trans)
    E(el)   - is the total energy from the electronic structure calculation
              = E(kin-el) + E(nuc-el) + E(el-el) + E(nuc-nuc)
    E(ZPE)  - the the zero temperature vibrational energy from the frequency calculation
    E(vib)  - the the finite temperature correction to E(ZPE) due to population
              of excited vibrational states
    E(rot)  - is the rotational thermal energy
    E(trans)- is the translational thermal energy

Summary of contributions to the inner energy U:
Electronic energy                ...   -248.48130948 Eh
Zero point energy                ...      0.10194608 Eh      63.97 kcal/mol
Thermal vibrational correction   ...      0.00328056 Eh       2.06 kcal/mol
Thermal rotational correction    ...      0.00141627 Eh       0.89 kcal/mol
Thermal translational correction ...      0.00141627 Eh       0.89 kcal/mol
-----------------------------------------------------------------------
Total thermal energy                   -248.37325029 Eh

Summary of corrections to the electronic energy:
(perhaps to be used in another calculation)
Total thermal correction                  0.00611310 Eh       3.84 kcal/mol
Non-thermal (ZPE) correction              0.10194608 Eh      63.97 kcal/mol
-----------------------------------------------------------------------
Total correction                          0.10805919 Eh      67.81 kcal/mol

--------
ENTHALPY
--------

The enthalpy is H = U + kB*T
                kB is Boltzmann's constant
Total free energy                 ...   -248.37325029 Eh
Thermal Enthalpy correction       ...      0.00094421 Eh       0.59 kcal/mol
-----------------------------------------------------------------------
Total Enthalpy                    ...   -248.37230609 Eh

Note: Only C1 symmetry has been detected, increase convergence thresholds
      if your molecule has a higher symmetry. Symmetry factor of 1.0 is
      used for the rotational entropy correction.

Note: Rotational entropy computed according to Herzberg
Infrared and Raman Spectra, Chapter V,1, Van Nostrand Reinhold, 1945
Point Group:  C1, Symmetry Number:   1
Rotational constants in cm-1:     0.298251     0.140031     0.098834

Vibrational entropy computed according to the QRRHO of S. Grimme
Chem.Eur.J. 2012 18 9955

-------
ENTROPY
-------

The entropy contributions are T*S = T*(S(el)+S(vib)+S(rot)+S(trans))
     S(el)   - electronic entropy
     S(vib)  - vibrational entropy
     S(rot)  - rotational entropy
     S(trans)- translational entropy
The entropies will be listed as multiplied by the temperature to get
units of energy

Electronic entropy                ...      0.00000000 Eh      0.00 kcal/mol
Vibrational entropy               ...      0.00559027 Eh      3.51 kcal/mol
Rotational entropy                ...      0.01210260 Eh      7.59 kcal/mol
Translational entropy             ...      0.01842737 Eh     11.56 kcal/mol
-----------------------------------------------------------------------
Final entropy term                ...      0.03612024 Eh     22.67 kcal/mol

In case the symmetry of your molecule has not been determined correctly
or in case you have a reason to use a different symmetry number we print
out the resulting rotational entropy values for sn=1,12 :
 --------------------------------------------------------
|  sn= 1 | S(rot)=       0.01210260 Eh      7.59 kcal/mol|
|  sn= 2 | S(rot)=       0.01144814 Eh      7.18 kcal/mol|
|  sn= 3 | S(rot)=       0.01106531 Eh      6.94 kcal/mol|
|  sn= 4 | S(rot)=       0.01079369 Eh      6.77 kcal/mol|
|  sn= 5 | S(rot)=       0.01058300 Eh      6.64 kcal/mol|
|  sn= 6 | S(rot)=       0.01041085 Eh      6.53 kcal/mol|
|  sn= 7 | S(rot)=       0.01026531 Eh      6.44 kcal/mol|
|  sn= 8 | S(rot)=       0.01013923 Eh      6.36 kcal/mol|
|  sn= 9 | S(rot)=       0.01002802 Eh      6.29 kcal/mol|
|  sn=10 | S(rot)=       0.00992854 Eh      6.23 kcal/mol|
|  sn=11 | S(rot)=       0.00983855 Eh      6.17 kcal/mol|
|  sn=12 | S(rot)=       0.00975640 Eh      6.12 kcal/mol|
 --------------------------------------------------------

-------------------
GIBBS FREE ENERGY
-------------------

The Gibbs free energy is G = H - T*S

Total enthalpy                    ...   -248.37230609 Eh
Total entropy correction          ...     -0.03612024 Eh    -22.67 kcal/mol
-----------------------------------------------------------------------
Final Gibbs free energy         ...   -248.40842633 Eh

For completeness - the Gibbs free energy minus the electronic energy
G-E(el)                           ...      0.07288316 Eh     45.73 kcal/mol

|  1>   ! B3LYP D4 def2-TZVP def2/J RIJCOSX nbo nopop
|  2>   %base "DMF_nbo"
|  3>   %nbo NBOKEYLIST = "$nbo BNDIDX $end" end
|  4>
|  5>                          ****END OF INPUT****
Dispersion correction           -0.012107757
FINAL SINGLE POINT ENERGY      -248.481309483685
|  1>   ! HF 6-31G* chelpg Hirshfeld nopop
|  2>   %base "DMF_charge"
|  3>
|  4>                          ****END OF INPUT****

CARTESIAN COORDINATES (ANGSTROEM)
---------------------------------
  O      1.844487    0.042287    0.285600
  N     -0.445072   -0.016705    0.232392
  C     -0.611542    1.421894    0.290694
  C     -1.638293   -0.830573    0.172394
  C      0.796163   -0.568359    0.237501
  H     -1.186921    1.706696    1.176497
  H     -1.140444    1.784401   -0.595668
  H      0.372739    1.880534    0.336769
  H     -2.268549   -0.668806    1.052430
  H     -1.361891   -1.883931    0.134533
  H     -2.229626   -0.595542   -0.718171
  H      0.756950   -1.671897    0.191028

 Multiplicity           Mult            ....    1
 Number of Electrons    NEL             ....   40
 Basis Dimension        Dim             ....   84

ORBITAL ENERGIES
----------------

  NO   OCC          E(Eh)            E(eV)
   0   2.0000     -20.522862      -558.4555
   1   2.0000     -15.593892      -424.3314
   2   2.0000     -11.346361      -308.7502
   3   2.0000     -11.273173      -306.7586
   4   2.0000     -11.256352      -306.3009
   5   2.0000      -1.376926       -37.4681
   6   2.0000      -1.253089       -34.0983
   7   2.0000      -0.985941       -26.8288
   8   2.0000      -0.948730       -25.8162
   9   2.0000      -0.780021       -21.2255
  10   2.0000      -0.702313       -19.1109
  11   2.0000      -0.657271       -17.8853
  12   2.0000      -0.651227       -17.7208
  13   2.0000      -0.581239       -15.8163
  14   2.0000      -0.567758       -15.4495
  15   2.0000      -0.566773       -15.4227
  16   2.0000      -0.540082       -14.6964
  17   2.0000      -0.527145       -14.3444
  18   2.0000      -0.421670       -11.4742
  19   2.0000      -0.371495       -10.1089
  20   0.0000       0.203987         5.5508
  21   0.0000       0.223311         6.0766
  22   0.0000       0.261269         7.1095
  23   0.0000       0.287081         7.8119
  24   0.0000       0.302497         8.2314

FINAL SINGLE POINT ENERGY      -246.988504135122

DIPOLE MOMENT
-------------
                                X             Y             Z
Electronic contribution:      4.88303      -0.77150       0.07261
Nuclear contribution   :     -6.47956       0.40306      -0.12142
                        -----------------------------------------
Total Dipole Moment    :     -1.59653      -0.36845      -0.04881
                        -----------------------------------------
Magnitude (a.u.)       :      1.63922
Magnitude (Debye)      :      4.16657

Rotational constants in cm-1:     0.298251     0.140031     0.098834
Rotational constants in MHz :  8941.338768  4198.025092  2962.960757

                             ****ORCA TERMINATED NORMALLY****
TOTAL RUN TIME: 0 days 0 hours 3 minutes 47 seconds 55 msec
