 Gaussian 16, Revision B.01,
 Gaussian 16:  ES64L-G16RevB.01 20-Dec-2017

 ----------------------------------------------------------------------
 #freq opt PBEPBE 6-31+G(D) EmpiricalDispersion=GD3BJ pop=(CM5, ESP, NB
 OREAD)
 ----------------------------------------------------------------------

 ---------------
 benzene_hessian
 ---------------
 Symbolic Z-matrix:
 Charge =  0 Multiplicity = 1

 SCF Done:  E(RPBE-PBE) =  -231.955304476     A.U. after   11 cycles
 SCF Done:  E(RPBE-PBE) =  -231.955882675     A.U. after   10 cycles
 SCF Done:  E(RPBE-PBE) =  -231.955886366     A.U. after    8 cycles
 Optimization completed.
    -- Stationary point found.

 ESP charges:
               1
     1  H    0.132358
     2  C   -0.132752
     3  C   -0.143040
     4  H    0.132725
     5  C   -0.126016
     6  H    0.129734
     7  C   -0.135420
     8  H    0.133289
     9  C   -0.141056
    10  H    0.132300
    11  C   -0.106814
    12  H    0.124693
 Sum of ESP charges =  -0.00000

 Normal termination of Gaussian 16 at Thu Sep  3 09:38:04 2020.

 ----------------------------------------------------------------------
 #N Geom=AllCheck Guess=TCheck SCRF=Check GenChk RPBEPBE/6-31+G(d) Freq
 ----------------------------------------------------------------------

 Structure from the checkpoint file:  "benzene_hessian.chk"
 ---------------
 benzene_hessian
 ---------------
 Charge =  0 Multiplicity = 1

                         Standard orientation:
 ---------------------------------------------------------------------
 Center     Atomic      Atomic             Coordinates (Angstroms)
 Number     Number       Type             X           Y           Z
 ---------------------------------------------------------------------
      1          1           0       -0.096907    2.497920   -0.000159
      2          6           0       -0.054792    1.403177    0.000118
      3          6           0       -1.242505    0.654361   -0.000068
      4          1           0       -2.212178    1.164338   -0.000036
      5          6           0        1.187904    0.748916   -0.000050
      6          1           0        2.114386    1.333350   -0.000060
      7          6           0        1.242507   -0.654361    0.000063
      8          1           0        2.212195   -1.164304    0.000020
      9          6           0        0.054892   -1.403148   -0.000120
     10          1           0        0.096482   -2.497958    0.000149
     11          6           0       -1.187905   -0.748969    0.000059
     12          1           0       -2.114582   -1.333204    0.000069
 ---------------------------------------------------------------------

 SCF Done:  E(RPBE-PBE) =  -231.955886366     A.U. after    1 cycles

 The electronic state is 1-A.
 Alpha  occ. eigenvalues --   -9.91187  -9.91169  -9.91169  -9.91133  -9.91133
 Alpha  occ. eigenvalues --   -9.91116  -0.77588  -0.67564  -0.67558  -0.54341
 Alpha  occ. eigenvalues --   -0.54339  -0.47095  -0.41294  -0.39586  -0.37494
 Alpha  occ. eigenvalues --   -0.37489  -0.32785  -0.30235  -0.30215  -0.22910
 Alpha  occ. eigenvalues --   -0.22902
 Alpha virt. eigenvalues --   -0.04205  -0.04196  -0.00450   0.01552   0.01552
 Alpha virt. eigenvalues --    0.03612   0.03614   0.05546   0.06471   0.06969
 Alpha virt. eigenvalues --    0.08213   0.08214   0.08920   0.09442   0.13045

 Mulliken charges:
               1
     1  H    0.189734
     2  C   -0.189717
     3  C   -0.189697
     4  H    0.189734
     5  C   -0.189786
     6  H    0.189745
     7  C   -0.189800
     8  H    0.189746
     9  C   -0.189759
    10  H    0.189735
    11  C   -0.189679
    12  H    0.189745
 Sum of Mulliken charges =  -0.00000

 Dipole moment (field-independent basis, Debye):
    X=             -0.0002    Y=              0.0001    Z=             -0.0000  Tot=              0.0002
 Quadrupole moment (field-independent basis, Debye-Ang):
   XX=            -32.0259   YY=            -32.0292   ZZ=            -40.4181
   XY=              0.0047   XZ=             -0.0001   YZ=             -0.0011

  Exact polarizability:  80.635   0.004  80.637   0.000   0.001  41.203
 Approx polarizability: 158.613   0.016 158.597   0.000   0.004  63.252

 Summary of Natural Population Analysis:

                                       Natural Population
                Natural  -----------------------------------------------
    Atom  No    Charge         Core      Valence    Rydberg      Total
 -----------------------------------------------------------------------
      H    1    0.25156      0.00000     0.74756    0.00088     0.74844
      C    2   -0.25159      1.99913     4.23841    0.01406     6.25159
      C    3   -0.25161      1.99913     4.23842    0.01406     6.25161
      H    4    0.25156      0.00000     0.74756    0.00088     0.74844
      C    5   -0.25147      1.99913     4.23828    0.01406     6.25147
      H    6    0.25155      0.00000     0.74757    0.00088     0.74845
      C    7   -0.25163      1.99912     4.23845    0.01406     6.25163
      H    8    0.25158      0.00000     0.74754    0.00088     0.74842
      C    9   -0.25160      1.99913     4.23841    0.01406     6.25160
      H   10    0.25156      0.00000     0.74755    0.00088     0.74844
      C   11   -0.25147      1.99913     4.23828    0.01406     6.25147
      H   12    0.25155      0.00000     0.74757    0.00088     0.74845
 =======================================================================
   * Total *    0.00000     11.99475    29.91561    0.08964    42.00000

                      1                      2                      3
                      A                      A                      A
 Frequencies --    394.7106               394.9453               600.1893
 Red. masses --      2.8838                 2.8795                 6.0534
 Frc consts  --      0.2647                 0.2646                 1.2848
 IR Inten    --      0.0000                 0.0000                 0.0000

                      4                      5                      6
                      A                      A                      A
 Frequencies --    600.3160               661.7726               691.0142
 Red. masses --      6.0544                 1.0848                 3.9509
 Frc consts  --      1.2855                 0.2799                 1.1115
 IR Inten    --      0.0000               125.8174                 0.0000

                      7                      8                      9
                      A                      A                      A
 Frequencies --    829.8650               830.3682               938.3350
 Red. masses --      1.2482                 1.2481                 1.3731
 Frc consts  --      0.5065                 0.5070                 0.7123
 IR Inten    --      0.0000                 0.0000                 0.0001

                     10                     11                     12
                      A                      A                      A
 Frequencies --    938.6874               971.7753               985.9228
 Red. masses --      1.3721                 1.2159                 6.5771
 Frc consts  --      0.7123                 0.6765                 3.7668
 IR Inten    --      0.0001                 0.0000                 0.0000

                     13                     14                     15
                      A                      A                      A
 Frequencies --    996.8121              1040.8326              1041.0297
 Red. masses --      6.0311                 1.6723                 1.6697
 Frc consts  --      3.5308                 1.0674                 1.0661
 IR Inten    --      0.0000                 6.4515                 6.4953

                     16                     17                     18
                      A                      A                      A
 Frequencies --   1151.4110              1172.1967              1172.4056
 Red. masses --      1.0354                 1.1260                 1.1257
 Frc consts  --      0.8087                 0.9116                 0.9116
 IR Inten    --      0.0001                 0.0000                 0.0000

                     19                     20                     21
                      A                      A                      A
 Frequencies --   1335.2840              1364.8107              1476.5577
 Red. masses --      1.2482                 9.1112                 2.0576
 Frc consts  --      1.3112                 9.9993                 2.6431
 IR Inten    --      0.0000                 0.0002                 5.2877

                     22                     23                     24
                      A                      A                      A
 Frequencies --   1476.7975              1604.1016              1605.1657
 Red. masses --      2.0615                 5.6233                 5.6299
 Frc consts  --      2.6490                 8.5253                 8.5465
 IR Inten    --      5.2803                 0.0000                 0.0000

                     25                     26                     27
                      A                      A                      A
 Frequencies --   3103.7723              3113.1516              3114.0787
 Red. masses --      1.0828                 1.0869                 1.0870
 Frc consts  --      6.1459                 6.2067                 6.2106
 IR Inten    --      0.0341                 0.0031                 0.0051

                     28                     29                     30
                      A                      A                      A
 Frequencies --   3128.7566              3129.6782              3139.2388
 Red. masses --      1.0948                 1.0948                 1.0992
 Frc consts  --      6.3146                 6.3181                 6.3821
 IR Inten    --     47.3963                47.2365                 0.0202

 - Thermochemistry -
 -------------------
 Temperature   298.150 Kelvin.  Pressure   1.00000 Atm.
 Atom     1 has atomic number  1 and mass   1.00783

 Molecular mass:    78.04695 amu.
 Principal axes and moments of inertia in atomic units:
                           1         2         3
     Eigenvalues --   320.97012 320.99869 641.96881
           X            0.78507   0.61941  -0.00000
           Y           -0.61941   0.78507  -0.00001
           Z           -0.00001   0.00001   1.00000
 This molecule is an asymmetric top.
 Rotational symmetry number  1.
 Rotational temperatures (Kelvin)      0.26985     0.26983     0.13492
 Rotational constants (GHZ):           5.62277     5.62227     2.81126
 Zero-point vibrational energy     257220.9 (Joules/Mol)
                                   61.47728 (Kcal/Mol)
 Warning -- explicit consideration of   4 degrees of freedom as
           vibrations may cause significant error
 Vibrational temperatures:    567.90   568.24   863.54   863.72   952.14
          (Kelvin)            994.22  1193.99  1194.71  1350.05  1350.56
                             1398.17  1418.52  1434.19  1497.53  1497.81
                             1656.62  1686.53  1686.83  1921.18  1963.66
                             2124.44  2124.78  2307.94  2309.48  4465.64
                             4479.13  4480.46  4501.58  4502.91  4516.66

 Zero-point correction=                           0.097970 (Hartree/Particle)
 Thermal correction to Energy=                    0.102504
 Thermal correction to Enthalpy=                  0.103448
 Thermal correction to Gibbs Free Energy=         0.070425
 Sum of electronic and zero-point Energies=           -231.857916
 Sum of electronic and thermal Energies=              -231.853383
 Sum of electronic and thermal Enthalpies=            -231.852439
 Sum of electronic and thermal Free Energies=         -231.885461

                     E (Thermal)             CV                S
                      KCal/Mol        Cal/Mol-Kelvin    Cal/Mol-Kelvin
 Total                   64.322             17.897             69.502
 Electronic               0.000              0.000              0.000
 Translational            0.889              2.981             38.979
 Rotational               0.889              2.981             25.695
 Vibrational             62.545             11.935              4.827
 Vibration     1          0.762              1.481              0.982
 Vibration     2          0.762              1.481              0.981
 Vibration     3          0.958              1.031              0.449
 Vibration     4          0.958              1.031              0.449

 Optimization completed.
    -- Stationary point found.
 Normal termination of Gaussian 16 at Thu Sep  3 09:38:25 2020.
