 Gaussian 16, Revision B.01,
 Gaussian 16:  ES64L-G16RevB.01 20-Dec-2017

 ------------------------------------------------------------
 #Opt=Modredundant PBEPBE EmpiricalDispersion=GD3BJ 6-31+G(D)
 ------------------------------------------------------------

 ------------------------------------------
 CC_H8C3_d91b46644317dee9c2b868166c66a18c~1
 ------------------------------------------
 Symbolic Z-matrix:
 Charge =  0 Multiplicity = 1

 SCF Done:  E(RPBE-PBE) =  -118.965908232     A.U. after   10 cycles
 SCF Done:  E(RPBE-PBE) =  -118.965911887     A.U. after    8 cycles
 Optimization completed.
    -- Stationary point found.
 SCF Done:  E(RPBE-PBE) =  -118.962638885     A.U. after    9 cycles
 SCF Done:  E(RPBE-PBE) =  -118.965023963     A.U. after    9 cycles
 SCF Done:  E(RPBE-PBE) =  -118.965257100     A.U. after    8 cycles
 SCF Done:  E(RPBE-PBE) =  -118.965260635     A.U. after    7 cycles
 Optimization completed.
 SCF Done:  E(RPBE-PBE) =  -118.960766255     A.U. after    9 cycles
 SCF Done:  E(RPBE-PBE) =  -118.963427667     A.U. after    9 cycles
 SCF Done:  E(RPBE-PBE) =  -118.963624974     A.U. after    9 cycles
 SCF Done:  E(RPBE-PBE) =  -118.963626360     A.U. after    7 cycles
 SCF Done:  E(RPBE-PBE) =  -118.961544760     A.U. after    9 cycles
 SCF Done:  E(RPBE-PBE) =  -118.961891231     A.U. after    9 cycles
 SCF Done:  E(RPBE-PBE) =  -118.961892519     A.U. after    7 cycles
 SCF Done:  E(RPBE-PBE) =  -118.960198153     A.U. after    9 cycles
 SCF Done:  E(RPBE-PBE) =  -118.963402291     A.U. after    9 cycles
 SCF Done:  E(RPBE-PBE) =  -118.963625964     A.U. after    9 cycles
 SCF Done:  E(RPBE-PBE) =  -118.963626431     A.U. after    6 cycles
    -- Stationary point found.
 SCF Done:  E(RPBE-PBE) =  -118.962306356     A.U. after    9 cycles
 SCF Done:  E(RPBE-PBE) =  -118.965126744     A.U. after    9 cycles
 SCF Done:  E(RPBE-PBE) =  -118.965260486     A.U. after    8 cycles
 Optimization completed.
    -- Stationary point found.

                         Standard orientation:
 ---------------------------------------------------------------------
 Center     Atomic      Atomic             Coordinates (Angstroms)
 Number     Number       Type             X           Y           Z
 ---------------------------------------------------------------------
      1          6           0        1.278918   -0.258794    0.003194
      2          6           0       -0.001111    0.589229    0.003589
      3          1           0        2.167813    0.341333   -0.259483
      4          1           0        1.453691   -0.734251    0.984882
      5          1           0        1.208068   -1.068899   -0.746915
      6          6           0       -1.277485   -0.261416   -0.000289
      7          1           0       -0.000981    1.266375    0.878930
      8          1           0       -0.005557    1.244385   -0.888911
      9          1           0       -2.186592    0.365475    0.015304
     10          1           0       -1.322423   -0.898466   -0.902410
     11          1           0       -1.315957   -0.930069    0.879638
 ---------------------------------------------------------------------

 The electronic state is 1-A.
 Alpha  occ. eigenvalues --   -9.89874  -9.88956  -9.88949  -0.70463  -0.61103
 Alpha  occ. eigenvalues --   -0.52198  -0.40494  -0.38657  -0.35026  -0.33382
 Alpha  occ. eigenvalues --   -0.29473  -0.29332  -0.28285
 Alpha virt. eigenvalues --    0.00265   0.02048   0.02446   0.03308   0.05791
 Alpha virt. eigenvalues --    0.06738   0.07357   0.07467   0.08299   0.10304
 Alpha virt. eigenvalues --    0.11046   0.13767   0.16494   0.16948   0.17525

 Mulliken charges:
               1
     1  C   -0.691538
     2  C   -0.328461
     3  H    0.213952
     4  H    0.218378
     5  H    0.212149
     6  C   -0.695715
     7  H    0.213817
     8  H    0.212669
     9  H    0.213569
    10  H    0.215362
    11  H    0.215818
 Sum of Mulliken charges =  -0.00000

 Dipole moment (field-independent basis, Debye):
    X=              0.0022    Y=              0.0885    Z=             -0.0120  Tot=              0.0893
 Quadrupole moment (field-independent basis, Debye-Ang):
   XX=            -22.6330   YY=            -22.2754   ZZ=            -21.7346
   XY=             -0.0138   XZ=             -0.0305   YZ=             -0.0170

 Normal termination of Gaussian 16 at Wed Oct 21 15:21:19 2020.
