 Gaussian 16, Revision B.01,
 Gaussian 16:  ES64L-G16RevB.01 20-Dec-2017

 --------------------------------------------------------------------
 #opt=modredundant PBEPBE 6-31+G(D) EmpiricalDispersion=GD3BJ pop=CM5
 --------------------------------------------------------------------

 --------------------------------------------------------------------
 CC_H8C3_0_1_PBEPBE-GD3BJ_6-31+G-D_d91b46644317dee9c2b868166c66a18c~1
 --------------------------------------------------------------------
 Symbolic Z-matrix:
 Charge =  0 Multiplicity = 1

 SCF Done:  E(RPBE-PBE) =  -118.965908232     A.U. after   10 cycles
 SCF Done:  E(RPBE-PBE) =  -118.965911887     A.U. after    8 cycles
 Optimization completed.
    -- Stationary point found.
 SCF Done:  E(RPBE-PBE) =  -118.964457808     A.U. after    9 cycles
 SCF Done:  E(RPBE-PBE) =  -118.965548388     A.U. after    9 cycles
 SCF Done:  E(RPBE-PBE) =  -118.965615117     A.U. after    8 cycles
 SCF Done:  E(RPBE-PBE) =  -118.965615947     A.U. after    6 cycles
 Optimization completed.
 SCF Done:  E(RPBE-PBE) =  -118.963585156     A.U. after    9 cycles
 SCF Done:  E(RPBE-PBE) =  -118.964765415     A.U. after    9 cycles
 SCF Done:  E(RPBE-PBE) =  -118.964791186     A.U. after    8 cycles
 SCF Done:  E(RPBE-PBE) =  -118.962321780     A.U. after    9 cycles
 SCF Done:  E(RPBE-PBE) =  -118.962412344     A.U. after    8 cycles
 SCF Done:  E(RPBE-PBE) =  -118.962148046     A.U. after    9 cycles
 SCF Done:  E(RPBE-PBE) =  -118.963598600     A.U. after    9 cycles
 SCF Done:  E(RPBE-PBE) =  -118.963626343     A.U. after    8 cycles
 SCF Done:  E(RPBE-PBE) =  -118.963456222     A.U. after    9 cycles
 SCF Done:  E(RPBE-PBE) =  -118.964773022     A.U. after    9 cycles
 SCF Done:  E(RPBE-PBE) =  -118.964791270     A.U. after    7 cycles
    -- Stationary point found.
 SCF Done:  E(RPBE-PBE) =  -118.964391252     A.U. after    9 cycles
 SCF Done:  E(RPBE-PBE) =  -118.965602569     A.U. after    9 cycles
 SCF Done:  E(RPBE-PBE) =  -118.965615916     A.U. after    7 cycles
 Optimization completed.
    -- Stationary point found.

                         Standard orientation:
 ---------------------------------------------------------------------
 Center     Atomic      Atomic             Coordinates (Angstroms)
 Number     Number       Type             X           Y           Z
 ---------------------------------------------------------------------
      1          6           0        1.277971   -0.259697    0.002316
      2          6           0       -0.000596    0.589169    0.002571
      3          1           0        2.177653    0.355880   -0.173779
      4          1           0        1.407144   -0.796701    0.959274
      5          1           0        1.242519   -1.019408   -0.800869
      6          6           0       -1.277231   -0.260895   -0.000241
      7          1           0       -0.000058    1.263000    0.880564
      8          1           0       -0.002995    1.247041   -0.887872
      9          1           0       -2.186072    0.366437    0.010593
     10          1           0       -1.321664   -0.902956   -0.898918
     11          1           0       -1.317390   -0.924753    0.883129
 ---------------------------------------------------------------------

 The electronic state is 1-A.
 Alpha  occ. eigenvalues --   -9.89874  -9.88954  -9.88951  -0.70475  -0.61106
 Alpha  occ. eigenvalues --   -0.52192  -0.40502  -0.38662  -0.35048  -0.33346
 Alpha  occ. eigenvalues --   -0.29485  -0.29339  -0.28312
 Alpha virt. eigenvalues --    0.00263   0.02047   0.02446   0.03300   0.05799
 Alpha virt. eigenvalues --    0.06731   0.07376   0.07466   0.08334   0.10289
 Alpha virt. eigenvalues --    0.11049   0.13842   0.16518   0.17026   0.17408

 Mulliken charges:
               1
     1  C   -0.689578
     2  C   -0.333392
     3  H    0.213805
     4  H    0.217317
     5  H    0.212752
     6  C   -0.691447
     7  H    0.213660
     8  H    0.212860
     9  H    0.213626
    10  H    0.215056
    11  H    0.215342
 Sum of Mulliken charges =   0.00000

 Dipole moment (field-independent basis, Debye):
    X=              0.0010    Y=              0.0895    Z=             -0.0083  Tot=              0.0899
 Quadrupole moment (field-independent basis, Debye-Ang):
   XX=            -22.6300   YY=            -22.2690   ZZ=            -21.7455
   XY=             -0.0061   XZ=             -0.0221   YZ=             -0.0124

 Normal termination of Gaussian 16 at Sat Dec  7 07:53:23 2019.
